V -t * -v 1.0a5 -a 0
A -t * -n 1 -p 0 -o 0x7fffffff -c 30 -a 1
A -t * -h 1 -m 1073741823 -s 0
c -t * -i 1 -n Blue
c -t * -i 2 -n Red
n -t * -a 0 -s 0 -S UP -v circle -c black -i black
n -t * -a 1 -s 1 -S UP -v circle -c black -i black
n -t * -a 2 -s 2 -S UP -v circle -c black -i black
l -t * -s 0 -d 1 -S UP -r 10000000 -D 0.01 -c black -o right
l -t * -s 1 -d 2 -S UP -r 10000000 -D 0.01 -c black -o right
+ -t 0.1 -s 0 -d 1 -p cbr -e 210 -c 1 -i 0 -a 1 -x {0.0 1.0 0 ------- null}
- -t 0.1 -s 0 -d 1 -p cbr -e 210 -c 1 -i 0 -a 1 -x {0.0 1.0 0 ------- null}
h -t 0.1 -s 0 -d 1 -p cbr -e 210 -c 1 -i 0 -a 1 -x {0.0 1.0 -1 ------- null}
+ -t 0.1 -s 1 -d 2 -p tcp -e 40 -c 2 -i 1 -a 2 -x {1.1 2.0 0 ------- null}
- -t 0.1 -s 1 -d 2 -p tcp -e 40 -c 2 -i 1 -a 2 -x {1.1 2.0 0 ------- null}
h -t 0.1 -s 1 -d 2 -p tcp -e 40 -c 2 -i 1 -a 2 -x {1.1 2.0 -1 ------- null}
+ -t 0.10375 -s 0 -d 1 -p cbr -e 210 -c 1 -i 2 -a 1 -x {0.0 1.0 1 ------- null}
- -t 0.10375 -s 0 -d 1 -p cbr -e 210 -c 1 -i 2 -a 1 -x {0.0 1.0 1 ------- null}
h -t 0.10375 -s 0 -d 1 -p cbr -e 210 -c 1 -i 2 -a 1 -x {0.0 1.0 -1 ------- null}
+ -t 0.1075 -s 0 -d 1 -p cbr -e 210 -c 1 -i 3 -a 1 -x {0.0 1.0 2 ------- null}
- -t 0.1075 -s 0 -d 1 -p cbr -e 210 -c 1 -i 3 -a 1 -x {0.0 1.0 2 ------- null}
h -t 0.1075 -s 0 -d 1 -p cbr -e 210 -c 1 -i 3 -a 1 -x {0.0 1.0 -1 ------- null}
r -t 0.110032 -s 1 -d 2 -p tcp -e 40 -c 2 -i 1 -a 2 -x {1.1 2.0 0 ------- null}
+ -t 0.110032 -s 2 -d 1 -p ack -e 40 -c 2 -i 4 -a 2 -x {2.0 1.1 0 ------- null}
- -t 0.110032 -s 2 -d 1 -p ack -e 40 -c 2 -i 4 -a 2 -x {2.0 1.1 0 ------- null}
h -t 0.110032 -s 2 -d 1 -p ack -e 40 -c 2 -i 4 -a 2 -x {2.0 1.1 -1 ------- null}
r -t 0.110168 -s 0 -d 1 -p cbr -e 210 -c 1 -i 0 -a 1 -x {0.0 1.0 0 ------- null}
+ -t 0.11125 -s 0 -d 1 -p cbr -e 210 -c 1 -i 5 -a 1 -x {0.0 1.0 3 ------- null}
- -t 0.11125 -s 0 -d 1 -p cbr -e 210 -c 1 -i 5 -a 1 -x {0.0 1.0 3 ------- null}
h -t 0.11125 -s 0 -d 1 -p cbr -e 210 -c 1 -i 5 -a 1 -x {0.0 1.0 -1 ------- null}
r -t 0.113918 -s 0 -d 1 -p cbr -e 210 -c 1 -i 2 -a 1 -x {0.0 1.0 1 ------- null}
+ -t 0.115 -s 0 -d 1 -p cbr -e 210 -c 1 -i 6 -a 1 -x {0.0 1.0 4 ------- null}
- -t 0.115 -s 0 -d 1 -p cbr -e 210 -c 1 -i 6 -a 1 -x {0.0 1.0 4 ------- null}
h -t 0.115 -s 0 -d 1 -p cbr -e 210 -c 1 -i 6 -a 1 -x {0.0 1.0 -1 ------- null}
r -t 0.117668 -s 0 -d 1 -p cbr -e 210 -c 1 -i 3 -a 1 -x {0.0 1.0 2 ------- null}
+ -t 0.11875 -s 0 -d 1 -p cbr -e 210 -c 1 -i 7 -a 1 -x {0.0 1.0 5 ------- null}
- -t 0.11875 -s 0 -d 1 -p cbr -e 210 -c 1 -i 7 -a 1 -x {0.0 1.0 5 ------- null}
h -t 0.11875 -s 0 -d 1 -p cbr -e 210 -c 1 -i 7 -a 1 -x {0.0 1.0 -1 ------- null}
r -t 0.120064 -s 2 -d 1 -p ack -e 40 -c 2 -i 4 -a 2 -x {2.0 1.1 0 ------- null}
+ -t 0.120064 -s 1 -d 2 -p tcp -e 1040 -c 2 -i 8 -a 2 -x {1.1 2.0 1 ------- null}
- -t 0.120064 -s 1 -d 2 -p tcp -e 1040 -c 2 -i 8 -a 2 -x {1.1 2.0 1 ------- null}
h -t 0.120064 -s 1 -d 2 -p tcp -e 1040 -c 2 -i 8 -a 2 -x {1.1 2.0 -1 ------- null}
+ -t 0.120064 -s 1 -d 2 -p tcp -e 1040 -c 2 -i 9 -a 2 -x {1.1 2.0 2 ------- null}
- -t 0.120896 -s 1 -d 2 -p tcp -e 1040 -c 2 -i 9 -a 2 -x {1.1 2.0 2 ------- null}
h -t 0.120896 -s 1 -d 2 -p tcp -e 1040 -c 2 -i 9 -a 2 -x {1.1 2.0 -1 ------- null}
r -t 0.121418 -s 0 -d 1 -p cbr -e 210 -c 1 -i 5 -a 1 -x {0.0 1.0 3 ------- null}
+ -t 0.1225 -s 0 -d 1 -p cbr -e 210 -c 1 -i 10 -a 1 -x {0.0 1.0 6 ------- null}
- -t 0.1225 -s 0 -d 1 -p cbr -e 210 -c 1 -i 10 -a 1 -x {0.0 1.0 6 ------- null}
h -t 0.1225 -s 0 -d 1 -p cbr -e 210 -c 1 -i 10 -a 1 -x {0.0 1.0 -1 ------- null}
r -t 0.125168 -s 0 -d 1 -p cbr -e 210 -c 1 -i 6 -a 1 -x {0.0 1.0 4 ------- null}
+ -t 0.12625 -s 0 -d 1 -p cbr -e 210 -c 1 -i 11 -a 1 -x {0.0 1.0 7 ------- null}
- -t 0.12625 -s 0 -d 1 -p cbr -e 210 -c 1 -i 11 -a 1 -x {0.0 1.0 7 ------- null}
h -t 0.12625 -s 0 -d 1 -p cbr -e 210 -c 1 -i 11 -a 1 -x {0.0 1.0 -1 ------- null}
r -t 0.128918 -s 0 -d 1 -p cbr -e 210 -c 1 -i 7 -a 1 -x {0.0 1.0 5 ------- null}
+ -t 0.13 -s 0 -d 1 -p cbr -e 210 -c 1 -i 12 -a 1 -x {0.0 1.0 8 ------- null}
- -t 0.13 -s 0 -d 1 -p cbr -e 210 -c 1 -i 12 -a 1 -x {0.0 1.0 8 ------- null}
h -t 0.13 -s 0 -d 1 -p cbr -e 210 -c 1 -i 12 -a 1 -x {0.0 1.0 -1 ------- null}
r -t 0.130896 -s 1 -d 2 -p tcp -e 1040 -c 2 -i 8 -a 2 -x {1.1 2.0 1 ------- null}
+ -t 0.130896 -s 2 -d 1 -p ack -e 40 -c 2 -i 13 -a 2 -x {2.0 1.1 1 ------- null}
- -t 0.130896 -s 2 -d 1 -p ack -e 40 -c 2 -i 13 -a 2 -x {2.0 1.1 1 ------- null}
h -t 0.130896 -s 2 -d 1 -p ack -e 40 -c 2 -i 13 -a 2 -x {2.0 1.1 -1 ------- null}
r -t 0.131728 -s 1 -d 2 -p tcp -e 1040 -c 2 -i 9 -a 2 -x {1.1 2.0 2 ------- null}
+ -t 0.131728 -s 2 -d 1 -p ack -e 40 -c 2 -i 14 -a 2 -x {2.0 1.1 2 ------- null}
- -t 0.131728 -s 2 -d 1 -p ack -e 40 -c 2 -i 14 -a 2 -x {2.0 1.1 2 ------- null}
h -t 0.131728 -s 2 -d 1 -p ack -e 40 -c 2 -i 14 -a 2 -x {2.0 1.1 -1 ------- null}
r -t 0.132668 -s 0 -d 1 -p cbr -e 210 -c 1 -i 10 -a 1 -x {0.0 1.0 6 ------- null}
+ -t 0.13375 -s 0 -d 1 -p cbr -e 210 -c 1 -i 15 -a 1 -x {0.0 1.0 9 ------- null}
- -t 0.13375 -s 0 -d 1 -p cbr -e 210 -c 1 -i 15 -a 1 -x {0.0 1.0 9 ------- null}
h -t 0.13375 -s 0 -d 1 -p cbr -e 210 -c 1 -i 15 -a 1 -x {0.0 1.0 -1 ------- null}
r -t 0.136418 -s 0 -d 1 -p cbr -e 210 -c 1 -i 11 -a 1 -x {0.0 1.0 7 ------- null}
+ -t 0.1375 -s 0 -d 1 -p cbr -e 210 -c 1 -i 16 -a 1 -x {0.0 1.0 10 ------- null}
- -t 0.1375 -s 0 -d 1 -p cbr -e 210 -c 1 -i 16 -a 1 -x {0.0 1.0 10 ------- null}
h -t 0.1375 -s 0 -d 1 -p cbr -e 210 -c 1 -i 16 -a 1 -x {0.0 1.0 -1 ------- null}
r -t 0.140168 -s 0 -d 1 -p cbr -e 210 -c 1 -i 12 -a 1 -x {0.0 1.0 8 ------- null}
r -t 0.140928 -s 2 -d 1 -p ack -e 40 -c 2 -i 13 -a 2 -x {2.0 1.1 1 ------- null}
+ -t 0.140928 -s 1 -d 2 -p tcp -e 1040 -c 2 -i 17 -a 2 -x {1.1 2.0 3 ------- null}
- -t 0.140928 -s 1 -d 2 -p tcp -e 1040 -c 2 -i 17 -a 2 -x {1.1 2.0 3 ------- null}
h -t 0.140928 -s 1 -d 2 -p tcp -e 1040 -c 2 -i 17 -a 2 -x {1.1 2.0 -1 ------- null}
+ -t 0.140928 -s 1 -d 2 -p tcp -e 1040 -c 2 -i 18 -a 2 -x {1.1 2.0 4 ------- null}
+ -t 0.14125 -s 0 -d 1 -p cbr -e 210 -c 1 -i 19 -a 1 -x {0.0 1.0 11 ------- null}
- -t 0.14125 -s 0 -d 1 -p cbr -e 210 -c 1 -i 19 -a 1 -x {0.0 1.0 11 ------- null}
h -t 0.14125 -s 0 -d 1 -p cbr -e 210 -c 1 -i 19 -a 1 -x {0.0 1.0 -1 ------- null}
r -t 0.14176 -s 2 -d 1 -p ack -e 40 -c 2 -i 14 -a 2 -x {2.0 1.1 2 ------- null}
+ -t 0.14176 -s 1 -d 2 -p tcp -e 1040 -c 2 -i 20 -a 2 -x {1.1 2.0 5 ------- null}
+ -t 0.14176 -s 1 -d 2 -p tcp -e 1040 -c 2 -i 21 -a 2 -x {1.1 2.0 6 ------- null}
- -t 0.14176 -s 1 -d 2 -p tcp -e 1040 -c 2 -i 18 -a 2 -x {1.1 2.0 4 ------- null}
h -t 0.14176 -s 1 -d 2 -p tcp -e 1040 -c 2 -i 18 -a 2 -x {1.1 2.0 -1 ------- null}
- -t 0.142592 -s 1 -d 2 -p tcp -e 1040 -c 2 -i 20 -a 2 -x {1.1 2.0 5 ------- null}
h -t 0.142592 -s 1 -d 2 -p tcp -e 1040 -c 2 -i 20 -a 2 -x {1.1 2.0 -1 ------- null}
- -t 0.143424 -s 1 -d 2 -p tcp -e 1040 -c 2 -i 21 -a 2 -x {1.1 2.0 6 ------- null}
h -t 0.143424 -s 1 -d 2 -p tcp -e 1040 -c 2 -i 21 -a 2 -x {1.1 2.0 -1 ------- null}
r -t 0.143918 -s 0 -d 1 -p cbr -e 210 -c 1 -i 15 -a 1 -x {0.0 1.0 9 ------- null}
+ -t 0.145 -s 0 -d 1 -p cbr -e 210 -c 1 -i 22 -a 1 -x {0.0 1.0 12 ------- null}
- -t 0.145 -s 0 -d 1 -p cbr -e 210 -c 1 -i 22 -a 1 -x {0.0 1.0 12 ------- null}
h -t 0.145 -s 0 -d 1 -p cbr -e 210 -c 1 -i 22 -a 1 -x {0.0 1.0 -1 ------- null}
r -t 0.147668 -s 0 -d 1 -p cbr -e 210 -c 1 -i 16 -a 1 -x {0.0 1.0 10 ------- null}
+ -t 0.14875 -s 0 -d 1 -p cbr -e 210 -c 1 -i 23 -a 1 -x {0.0 1.0 13 ------- null}
- -t 0.14875 -s 0 -d 1 -p cbr -e 210 -c 1 -i 23 -a 1 -x {0.0 1.0 13 ------- null}
h -t 0.14875 -s 0 -d 1 -p cbr -e 210 -c 1 -i 23 -a 1 -x {0.0 1.0 -1 ------- null}
r -t 0.151418 -s 0 -d 1 -p cbr -e 210 -c 1 -i 19 -a 1 -x {0.0 1.0 11 ------- null}
r -t 0.15176 -s 1 -d 2 -p tcp -e 1040 -c 2 -i 17 -a 2 -x {1.1 2.0 3 ------- null}
+ -t 0.15176 -s 2 -d 1 -p ack -e 40 -c 2 -i 24 -a 2 -x {2.0 1.1 3 ------- null}
- -t 0.15176 -s 2 -d 1 -p ack -e 40 -c 2 -i 24 -a 2 -x {2.0 1.1 3 ------- null}
h -t 0.15176 -s 2 -d 1 -p ack -e 40 -c 2 -i 24 -a 2 -x {2.0 1.1 -1 ------- null}
+ -t 0.1525 -s 0 -d 1 -p cbr -e 210 -c 1 -i 25 -a 1 -x {0.0 1.0 14 ------- null}
- -t 0.1525 -s 0 -d 1 -p cbr -e 210 -c 1 -i 25 -a 1 -x {0.0 1.0 14 ------- null}
h -t 0.1525 -s 0 -d 1 -p cbr -e 210 -c 1 -i 25 -a 1 -x {0.0 1.0 -1 ------- null}
r -t 0.152592 -s 1 -d 2 -p tcp -e 1040 -c 2 -i 18 -a 2 -x {1.1 2.0 4 ------- null}
+ -t 0.152592 -s 2 -d 1 -p ack -e 40 -c 2 -i 26 -a 2 -x {2.0 1.1 4 ------- null}
- -t 0.152592 -s 2 -d 1 -p ack -e 40 -c 2 -i 26 -a 2 -x {2.0 1.1 4 ------- null}
h -t 0.152592 -s 2 -d 1 -p ack -e 40 -c 2 -i 26 -a 2 -x {2.0 1.1 -1 ------- null}
r -t 0.153424 -s 1 -d 2 -p tcp -e 1040 -c 2 -i 20 -a 2 -x {1.1 2.0 5 ------- null}
+ -t 0.153424 -s 2 -d 1 -p ack -e 40 -c 2 -i 27 -a 2 -x {2.0 1.1 5 ------- null}
- -t 0.153424 -s 2 -d 1 -p ack -e 40 -c 2 -i 27 -a 2 -x {2.0 1.1 5 ------- null}
h -t 0.153424 -s 2 -d 1 -p ack -e 40 -c 2 -i 27 -a 2 -x {2.0 1.1 -1 ------- null}
r -t 0.154256 -s 1 -d 2 -p tcp -e 1040 -c 2 -i 21 -a 2 -x {1.1 2.0 6 ------- null}
+ -t 0.154256 -s 2 -d 1 -p ack -e 40 -c 2 -i 28 -a 2 -x {2.0 1.1 6 ------- null}
- -t 0.154256 -s 2 -d 1 -p ack -e 40 -c 2 -i 28 -a 2 -x {2.0 1.1 6 ------- null}
h -t 0.154256 -s 2 -d 1 -p ack -e 40 -c 2 -i 28 -a 2 -x {2.0 1.1 -1 ------- null}
r -t 0.155168 -s 0 -d 1 -p cbr -e 210 -c 1 -i 22 -a 1 -x {0.0 1.0 12 ------- null}
+ -t 0.15625 -s 0 -d 1 -p cbr -e 210 -c 1 -i 29 -a 1 -x {0.0 1.0 15 ------- null}
- -t 0.15625 -s 0 -d 1 -p cbr -e 210 -c 1 -i 29 -a 1 -x {0.0 1.0 15 ------- null}
h -t 0.15625 -s 0 -d 1 -p cbr -e 210 -c 1 -i 29 -a 1 -x {0.0 1.0 -1 ------- null}
r -t 0.158918 -s 0 -d 1 -p cbr -e 210 -c 1 -i 23 -a 1 -x {0.0 1.0 13 ------- null}
+ -t 0.16 -s 0 -d 1 -p cbr -e 210 -c 1 -i 30 -a 1 -x {0.0 1.0 16 ------- null}
- -t 0.16 -s 0 -d 1 -p cbr -e 210 -c 1 -i 30 -a 1 -x {0.0 1.0 16 ------- null}
h -t 0.16 -s 0 -d 1 -p cbr -e 210 -c 1 -i 30 -a 1 -x {0.0 1.0 -1 ------- null}
r -t 0.161792 -s 2 -d 1 -p ack -e 40 -c 2 -i 24 -a 2 -x {2.0 1.1 3 ------- null}
+ -t 0.161792 -s 1 -d 2 -p tcp -e 1040 -c 2 -i 31 -a 2 -x {1.1 2.0 7 ------- null}
- -t 0.161792 -s 1 -d 2 -p tcp -e 1040 -c 2 -i 31 -a 2 -x {1.1 2.0 7 ------- null}
h -t 0.161792 -s 1 -d 2 -p tcp -e 1040 -c 2 -i 31 -a 2 -x {1.1 2.0 -1 ------- null}
+ -t 0.161792 -s 1 -d 2 -p tcp -e 1040 -c 2 -i 32 -a 2 -x {1.1 2.0 8 ------- null}
r -t 0.162624 -s 2 -d 1 -p ack -e 40 -c 2 -i 26 -a 2 -x {2.0 1.1 4 ------- null}
+ -t 0.162624 -s 1 -d 2 -p tcp -e 1040 -c 2 -i 33 -a 2 -x {1.1 2.0 9 ------- null}
+ -t 0.162624 -s 1 -d 2 -p tcp -e 1040 -c 2 -i 34 -a 2 -x {1.1 2.0 10 ------- null}
- -t 0.162624 -s 1 -d 2 -p tcp -e 1040 -c 2 -i 32 -a 2 -x {1.1 2.0 8 ------- null}
h -t 0.162624 -s 1 -d 2 -p tcp -e 1040 -c 2 -i 32 -a 2 -x {1.1 2.0 -1 ------- null}
r -t 0.162668 -s 0 -d 1 -p cbr -e 210 -c 1 -i 25 -a 1 -x {0.0 1.0 14 ------- null}
r -t 0.163456 -s 2 -d 1 -p ack -e 40 -c 2 -i 27 -a 2 -x {2.0 1.1 5 ------- null}
+ -t 0.163456 -s 1 -d 2 -p tcp -e 1040 -c 2 -i 35 -a 2 -x {1.1 2.0 11 ------- null}
+ -t 0.163456 -s 1 -d 2 -p tcp -e 1040 -c 2 -i 36 -a 2 -x {1.1 2.0 12 ------- null}
- -t 0.163456 -s 1 -d 2 -p tcp -e 1040 -c 2 -i 33 -a 2 -x {1.1 2.0 9 ------- null}
h -t 0.163456 -s 1 -d 2 -p tcp -e 1040 -c 2 -i 33 -a 2 -x {1.1 2.0 -1 ------- null}
+ -t 0.16375 -s 0 -d 1 -p cbr -e 210 -c 1 -i 37 -a 1 -x {0.0 1.0 17 ------- null}
- -t 0.16375 -s 0 -d 1 -p cbr -e 210 -c 1 -i 37 -a 1 -x {0.0 1.0 17 ------- null}
h -t 0.16375 -s 0 -d 1 -p cbr -e 210 -c 1 -i 37 -a 1 -x {0.0 1.0 -1 ------- null}
r -t 0.164288 -s 2 -d 1 -p ack -e 40 -c 2 -i 28 -a 2 -x {2.0 1.1 6 ------- null}
+ -t 0.164288 -s 1 -d 2 -p tcp -e 1040 -c 2 -i 38 -a 2 -x {1.1 2.0 13 ------- null}
+ -t 0.164288 -s 1 -d 2 -p tcp -e 1040 -c 2 -i 39 -a 2 -x {1.1 2.0 14 ------- null}
- -t 0.164288 -s 1 -d 2 -p tcp -e 1040 -c 2 -i 34 -a 2 -x {1.1 2.0 10 ------- null}
h -t 0.164288 -s 1 -d 2 -p tcp -e 1040 -c 2 -i 34 -a 2 -x {1.1 2.0 -1 ------- null}
- -t 0.16512 -s 1 -d 2 -p tcp -e 1040 -c 2 -i 35 -a 2 -x {1.1 2.0 11 ------- null}
h -t 0.16512 -s 1 -d 2 -p tcp -e 1040 -c 2 -i 35 -a 2 -x {1.1 2.0 -1 ------- null}
- -t 0.165952 -s 1 -d 2 -p tcp -e 1040 -c 2 -i 36 -a 2 -x {1.1 2.0 12 ------- null}
h -t 0.165952 -s 1 -d 2 -p tcp -e 1040 -c 2 -i 36 -a 2 -x {1.1 2.0 -1 ------- null}
r -t 0.166418 -s 0 -d 1 -p cbr -e 210 -c 1 -i 29 -a 1 -x {0.0 1.0 15 ------- null}
- -t 0.166784 -s 1 -d 2 -p tcp -e 1040 -c 2 -i 38 -a 2 -x {1.1 2.0 13 ------- null}
h -t 0.166784 -s 1 -d 2 -p tcp -e 1040 -c 2 -i 38 -a 2 -x {1.1 2.0 -1 ------- null}
+ -t 0.1675 -s 0 -d 1 -p cbr -e 210 -c 1 -i 40 -a 1 -x {0.0 1.0 18 ------- null}
- -t 0.1675 -s 0 -d 1 -p cbr -e 210 -c 1 -i 40 -a 1 -x {0.0 1.0 18 ------- null}
h -t 0.1675 -s 0 -d 1 -p cbr -e 210 -c 1 -i 40 -a 1 -x {0.0 1.0 -1 ------- null}
- -t 0.167616 -s 1 -d 2 -p tcp -e 1040 -c 2 -i 39 -a 2 -x {1.1 2.0 14 ------- null}
h -t 0.167616 -s 1 -d 2 -p tcp -e 1040 -c 2 -i 39 -a 2 -x {1.1 2.0 -1 ------- null}
r -t 0.170168 -s 0 -d 1 -p cbr -e 210 -c 1 -i 30 -a 1 -x {0.0 1.0 16 ------- null}
+ -t 0.17125 -s 0 -d 1 -p cbr -e 210 -c 1 -i 41 -a 1 -x {0.0 1.0 19 ------- null}
- -t 0.17125 -s 0 -d 1 -p cbr -e 210 -c 1 -i 41 -a 1 -x {0.0 1.0 19 ------- null}
h -t 0.17125 -s 0 -d 1 -p cbr -e 210 -c 1 -i 41 -a 1 -x {0.0 1.0 -1 ------- null}
r -t 0.172624 -s 1 -d 2 -p tcp -e 1040 -c 2 -i 31 -a 2 -x {1.1 2.0 7 ------- null}
+ -t 0.172624 -s 2 -d 1 -p ack -e 40 -c 2 -i 42 -a 2 -x {2.0 1.1 7 ------- null}
- -t 0.172624 -s 2 -d 1 -p ack -e 40 -c 2 -i 42 -a 2 -x {2.0 1.1 7 ------- null}
h -t 0.172624 -s 2 -d 1 -p ack -e 40 -c 2 -i 42 -a 2 -x {2.0 1.1 -1 ------- null}
r -t 0.173456 -s 1 -d 2 -p tcp -e 1040 -c 2 -i 32 -a 2 -x {1.1 2.0 8 ------- null}
+ -t 0.173456 -s 2 -d 1 -p ack -e 40 -c 2 -i 43 -a 2 -x {2.0 1.1 8 ------- null}
- -t 0.173456 -s 2 -d 1 -p ack -e 40 -c 2 -i 43 -a 2 -x {2.0 1.1 8 ------- null}
h -t 0.173456 -s 2 -d 1 -p ack -e 40 -c 2 -i 43 -a 2 -x {2.0 1.1 -1 ------- null}
r -t 0.173918 -s 0 -d 1 -p cbr -e 210 -c 1 -i 37 -a 1 -x {0.0 1.0 17 ------- null}
r -t 0.174288 -s 1 -d 2 -p tcp -e 1040 -c 2 -i 33 -a 2 -x {1.1 2.0 9 ------- null}
+ -t 0.174288 -s 2 -d 1 -p ack -e 40 -c 2 -i 44 -a 2 -x {2.0 1.1 9 ------- null}
- -t 0.174288 -s 2 -d 1 -p ack -e 40 -c 2 -i 44 -a 2 -x {2.0 1.1 9 ------- null}
h -t 0.174288 -s 2 -d 1 -p ack -e 40 -c 2 -i 44 -a 2 -x {2.0 1.1 -1 ------- null}
+ -t 0.175 -s 0 -d 1 -p cbr -e 210 -c 1 -i 45 -a 1 -x {0.0 1.0 20 ------- null}
- -t 0.175 -s 0 -d 1 -p cbr -e 210 -c 1 -i 45 -a 1 -x {0.0 1.0 20 ------- null}
h -t 0.175 -s 0 -d 1 -p cbr -e 210 -c 1 -i 45 -a 1 -x {0.0 1.0 -1 ------- null}
r -t 0.17512 -s 1 -d 2 -p tcp -e 1040 -c 2 -i 34 -a 2 -x {1.1 2.0 10 ------- null}
+ -t 0.17512 -s 2 -d 1 -p ack -e 40 -c 2 -i 46 -a 2 -x {2.0 1.1 10 ------- null}
- -t 0.17512 -s 2 -d 1 -p ack -e 40 -c 2 -i 46 -a 2 -x {2.0 1.1 10 ------- null}
h -t 0.17512 -s 2 -d 1 -p ack -e 40 -c 2 -i 46 -a 2 -x {2.0 1.1 -1 ------- null}
r -t 0.175952 -s 1 -d 2 -p tcp -e 1040 -c 2 -i 35 -a 2 -x {1.1 2.0 11 ------- null}
+ -t 0.175952 -s 2 -d 1 -p ack -e 40 -c 2 -i 47 -a 2 -x {2.0 1.1 11 ------- null}
- -t 0.175952 -s 2 -d 1 -p ack -e 40 -c 2 -i 47 -a 2 -x {2.0 1.1 11 ------- null}
h -t 0.175952 -s 2 -d 1 -p ack -e 40 -c 2 -i 47 -a 2 -x {2.0 1.1 -1 ------- null}
r -t 0.176784 -s 1 -d 2 -p tcp -e 1040 -c 2 -i 36 -a 2 -x {1.1 2.0 12 ------- null}
+ -t 0.176784 -s 2 -d 1 -p ack -e 40 -c 2 -i 48 -a 2 -x {2.0 1.1 12 ------- null}
- -t 0.176784 -s 2 -d 1 -p ack -e 40 -c 2 -i 48 -a 2 -x {2.0 1.1 12 ------- null}
h -t 0.176784 -s 2 -d 1 -p ack -e 40 -c 2 -i 48 -a 2 -x {2.0 1.1 -1 ------- null}
r -t 0.177616 -s 1 -d 2 -p tcp -e 1040 -c 2 -i 38 -a 2 -x {1.1 2.0 13 ------- null}
+ -t 0.177616 -s 2 -d 1 -p ack -e 40 -c 2 -i 49 -a 2 -x {2.0 1.1 13 ------- null}
- -t 0.177616 -s 2 -d 1 -p ack -e 40 -c 2 -i 49 -a 2 -x {2.0 1.1 13 ------- null}
h -t 0.177616 -s 2 -d 1 -p ack -e 40 -c 2 -i 49 -a 2 -x {2.0 1.1 -1 ------- null}
r -t 0.177668 -s 0 -d 1 -p cbr -e 210 -c 1 -i 40 -a 1 -x {0.0 1.0 18 ------- null}
r -t 0.178448 -s 1 -d 2 -p tcp -e 1040 -c 2 -i 39 -a 2 -x {1.1 2.0 14 ------- null}
+ -t 0.178448 -s 2 -d 1 -p ack -e 40 -c 2 -i 50 -a 2 -x {2.0 1.1 14 ------- null}
- -t 0.178448 -s 2 -d 1 -p ack -e 40 -c 2 -i 50 -a 2 -x {2.0 1.1 14 ------- null}
h -t 0.178448 -s 2 -d 1 -p ack -e 40 -c 2 -i 50 -a 2 -x {2.0 1.1 -1 ------- null}
+ -t 0.17875 -s 0 -d 1 -p cbr -e 210 -c 1 -i 51 -a 1 -x {0.0 1.0 21 ------- null}
- -t 0.17875 -s 0 -d 1 -p cbr -e 210 -c 1 -i 51 -a 1 -x {0.0 1.0 21 ------- null}
h -t 0.17875 -s 0 -d 1 -p cbr -e 210 -c 1 -i 51 -a 1 -x {0.0 1.0 -1 ------- null}
r -t 0.181418 -s 0 -d 1 -p cbr -e 210 -c 1 -i 41 -a 1 -x {0.0 1.0 19 ------- null}
+ -t 0.1825 -s 0 -d 1 -p cbr -e 210 -c 1 -i 52 -a 1 -x {0.0 1.0 22 ------- null}
- -t 0.1825 -s 0 -d 1 -p cbr -e 210 -c 1 -i 52 -a 1 -x {0.0 1.0 22 ------- null}
h -t 0.1825 -s 0 -d 1 -p cbr -e 210 -c 1 -i 52 -a 1 -x {0.0 1.0 -1 ------- null}
r -t 0.182656 -s 2 -d 1 -p ack -e 40 -c 2 -i 42 -a 2 -x {2.0 1.1 7 ------- null}
+ -t 0.182656 -s 1 -d 2 -p tcp -e 1040 -c 2 -i 53 -a 2 -x {1.1 2.0 15 ------- null}
- -t 0.182656 -s 1 -d 2 -p tcp -e 1040 -c 2 -i 53 -a 2 -x {1.1 2.0 15 ------- null}
h -t 0.182656 -s 1 -d 2 -p tcp -e 1040 -c 2 -i 53 -a 2 -x {1.1 2.0 -1 ------- null}
+ -t 0.182656 -s 1 -d 2 -p tcp -e 1040 -c 2 -i 54 -a 2 -x {1.1 2.0 16 ------- null}
r -t 0.183488 -s 2 -d 1 -p ack -e 40 -c 2 -i 43 -a 2 -x {2.0 1.1 8 ------- null}
+ -t 0.183488 -s 1 -d 2 -p tcp -e 1040 -c 2 -i 55 -a 2 -x {1.1 2.0 17 ------- null}
+ -t 0.183488 -s 1 -d 2 -p tcp -e 1040 -c 2 -i 56 -a 2 -x {1.1 2.0 18 ------- null}
- -t 0.183488 -s 1 -d 2 -p tcp -e 1040 -c 2 -i 54 -a 2 -x {1.1 2.0 16 ------- null}
h -t 0.183488 -s 1 -d 2 -p tcp -e 1040 -c 2 -i 54 -a 2 -x {1.1 2.0 -1 ------- null}
r -t 0.18432 -s 2 -d 1 -p ack -e 40 -c 2 -i 44 -a 2 -x {2.0 1.1 9 ------- null}
+ -t 0.18432 -s 1 -d 2 -p tcp -e 1040 -c 2 -i 57 -a 2 -x {1.1 2.0 19 ------- null}
+ -t 0.18432 -s 1 -d 2 -p tcp -e 1040 -c 2 -i 58 -a 2 -x {1.1 2.0 20 ------- null}
- -t 0.18432 -s 1 -d 2 -p tcp -e 1040 -c 2 -i 55 -a 2 -x {1.1 2.0 17 ------- null}
h -t 0.18432 -s 1 -d 2 -p tcp -e 1040 -c 2 -i 55 -a 2 -x {1.1 2.0 -1 ------- null}
r -t 0.185152 -s 2 -d 1 -p ack -e 40 -c 2 -i 46 -a 2 -x {2.0 1.1 10 ------- null}
+ -t 0.185152 -s 1 -d 2 -p tcp -e 1040 -c 2 -i 59 -a 2 -x {1.1 2.0 21 ------- null}
+ -t 0.185152 -s 1 -d 2 -p tcp -e 1040 -c 2 -i 60 -a 2 -x {1.1 2.0 22 ------- null}
- -t 0.185152 -s 1 -d 2 -p tcp -e 1040 -c 2 -i 56 -a 2 -x {1.1 2.0 18 ------- null}
h -t 0.185152 -s 1 -d 2 -p tcp -e 1040 -c 2 -i 56 -a 2 -x {1.1 2.0 -1 ------- null}
r -t 0.185168 -s 0 -d 1 -p cbr -e 210 -c 1 -i 45 -a 1 -x {0.0 1.0 20 ------- null}
r -t 0.185984 -s 2 -d 1 -p ack -e 40 -c 2 -i 47 -a 2 -x {2.0 1.1 11 ------- null}
+ -t 0.185984 -s 1 -d 2 -p tcp -e 1040 -c 2 -i 61 -a 2 -x {1.1 2.0 23 ------- null}
- -t 0.185984 -s 1 -d 2 -p tcp -e 1040 -c 2 -i 57 -a 2 -x {1.1 2.0 19 ------- null}
h -t 0.185984 -s 1 -d 2 -p tcp -e 1040 -c 2 -i 57 -a 2 -x {1.1 2.0 -1 ------- null}
+ -t 0.18625 -s 0 -d 1 -p cbr -e 210 -c 1 -i 62 -a 1 -x {0.0 1.0 23 ------- null}
- -t 0.18625 -s 0 -d 1 -p cbr -e 210 -c 1 -i 62 -a 1 -x {0.0 1.0 23 ------- null}
h -t 0.18625 -s 0 -d 1 -p cbr -e 210 -c 1 -i 62 -a 1 -x {0.0 1.0 -1 ------- null}
+ -t 0.18625 -s 1 -d 2 -p tcp -e 1040 -c 2 -i 63 -a 2 -x {1.1 2.0 24 ------- null}
r -t 0.186816 -s 2 -d 1 -p ack -e 40 -c 2 -i 48 -a 2 -x {2.0 1.1 12 ------- null}
- -t 0.186816 -s 1 -d 2 -p tcp -e 1040 -c 2 -i 58 -a 2 -x {1.1 2.0 20 ------- null}
h -t 0.186816 -s 1 -d 2 -p tcp -e 1040 -c 2 -i 58 -a 2 -x {1.1 2.0 -1 ------- null}
r -t 0.187648 -s 2 -d 1 -p ack -e 40 -c 2 -i 49 -a 2 -x {2.0 1.1 13 ------- null}
- -t 0.187648 -s 1 -d 2 -p tcp -e 1040 -c 2 -i 59 -a 2 -x {1.1 2.0 21 ------- null}
h -t 0.187648 -s 1 -d 2 -p tcp -e 1040 -c 2 -i 59 -a 2 -x {1.1 2.0 -1 ------- null}
r -t 0.18848 -s 2 -d 1 -p ack -e 40 -c 2 -i 50 -a 2 -x {2.0 1.1 14 ------- null}
- -t 0.18848 -s 1 -d 2 -p tcp -e 1040 -c 2 -i 60 -a 2 -x {1.1 2.0 22 ------- null}
h -t 0.18848 -s 1 -d 2 -p tcp -e 1040 -c 2 -i 60 -a 2 -x {1.1 2.0 -1 ------- null}
r -t 0.188918 -s 0 -d 1 -p cbr -e 210 -c 1 -i 51 -a 1 -x {0.0 1.0 21 ------- null}
- -t 0.189312 -s 1 -d 2 -p tcp -e 1040 -c 2 -i 61 -a 2 -x {1.1 2.0 23 ------- null}
h -t 0.189312 -s 1 -d 2 -p tcp -e 1040 -c 2 -i 61 -a 2 -x {1.1 2.0 -1 ------- null}
+ -t 0.19 -s 0 -d 1 -p cbr -e 210 -c 1 -i 64 -a 1 -x {0.0 1.0 24 ------- null}
- -t 0.19 -s 0 -d 1 -p cbr -e 210 -c 1 -i 64 -a 1 -x {0.0 1.0 24 ------- null}
h -t 0.19 -s 0 -d 1 -p cbr -e 210 -c 1 -i 64 -a 1 -x {0.0 1.0 -1 ------- null}
+ -t 0.19 -s 1 -d 2 -p tcp -e 1040 -c 2 -i 65 -a 2 -x {1.1 2.0 25 ------- null}
- -t 0.190144 -s 1 -d 2 -p tcp -e 1040 -c 2 -i 63 -a 2 -x {1.1 2.0 24 ------- null}
h -t 0.190144 -s 1 -d 2 -p tcp -e 1040 -c 2 -i 63 -a 2 -x {1.1 2.0 -1 ------- null}
- -t 0.190976 -s 1 -d 2 -p tcp -e 1040 -c 2 -i 65 -a 2 -x {1.1 2.0 25 ------- null}
h -t 0.190976 -s 1 -d 2 -p tcp -e 1040 -c 2 -i 65 -a 2 -x {1.1 2.0 -1 ------- null}
r -t 0.192668 -s 0 -d 1 -p cbr -e 210 -c 1 -i 52 -a 1 -x {0.0 1.0 22 ------- null}
r -t 0.193488 -s 1 -d 2 -p tcp -e 1040 -c 2 -i 53 -a 2 -x {1.1 2.0 15 ------- null}
+ -t 0.193488 -s 2 -d 1 -p ack -e 40 -c 2 -i 66 -a 2 -x {2.0 1.1 15 ------- null}
- -t 0.193488 -s 2 -d 1 -p ack -e 40 -c 2 -i 66 -a 2 -x {2.0 1.1 15 ------- null}
h -t 0.193488 -s 2 -d 1 -p ack -e 40 -c 2 -i 66 -a 2 -x {2.0 1.1 -1 ------- null}
+ -t 0.19375 -s 0 -d 1 -p cbr -e 210 -c 1 -i 67 -a 1 -x {0.0 1.0 25 ------- null}
- -t 0.19375 -s 0 -d 1 -p cbr -e 210 -c 1 -i 67 -a 1 -x {0.0 1.0 25 ------- null}
h -t 0.19375 -s 0 -d 1 -p cbr -e 210 -c 1 -i 67 -a 1 -x {0.0 1.0 -1 ------- null}
+ -t 0.19375 -s 1 -d 2 -p tcp -e 1040 -c 2 -i 68 -a 2 -x {1.1 2.0 26 ------- null}
- -t 0.19375 -s 1 -d 2 -p tcp -e 1040 -c 2 -i 68 -a 2 -x {1.1 2.0 26 ------- null}
h -t 0.19375 -s 1 -d 2 -p tcp -e 1040 -c 2 -i 68 -a 2 -x {1.1 2.0 -1 ------- null}
r -t 0.19432 -s 1 -d 2 -p tcp -e 1040 -c 2 -i 54 -a 2 -x {1.1 2.0 16 ------- null}
+ -t 0.19432 -s 2 -d 1 -p ack -e 40 -c 2 -i 69 -a 2 -x {2.0 1.1 16 ------- null}
- -t 0.19432 -s 2 -d 1 -p ack -e 40 -c 2 -i 69 -a 2 -x {2.0 1.1 16 ------- null}
h -t 0.19432 -s 2 -d 1 -p ack -e 40 -c 2 -i 69 -a 2 -x {2.0 1.1 -1 ------- null}
r -t 0.195152 -s 1 -d 2 -p tcp -e 1040 -c 2 -i 55 -a 2 -x {1.1 2.0 17 ------- null}
+ -t 0.195152 -s 2 -d 1 -p ack -e 40 -c 2 -i 70 -a 2 -x {2.0 1.1 17 ------- null}
- -t 0.195152 -s 2 -d 1 -p ack -e 40 -c 2 -i 70 -a 2 -x {2.0 1.1 17 ------- null}
h -t 0.195152 -s 2 -d 1 -p ack -e 40 -c 2 -i 70 -a 2 -x {2.0 1.1 -1 ------- null}
r -t 0.195984 -s 1 -d 2 -p tcp -e 1040 -c 2 -i 56 -a 2 -x {1.1 2.0 18 ------- null}
+ -t 0.195984 -s 2 -d 1 -p ack -e 40 -c 2 -i 71 -a 2 -x {2.0 1.1 18 ------- null}
- -t 0.195984 -s 2 -d 1 -p ack -e 40 -c 2 -i 71 -a 2 -x {2.0 1.1 18 ------- null}
h -t 0.195984 -s 2 -d 1 -p ack -e 40 -c 2 -i 71 -a 2 -x {2.0 1.1 -1 ------- null}
r -t 0.196418 -s 0 -d 1 -p cbr -e 210 -c 1 -i 62 -a 1 -x {0.0 1.0 23 ------- null}
r -t 0.196816 -s 1 -d 2 -p tcp -e 1040 -c 2 -i 57 -a 2 -x {1.1 2.0 19 ------- null}
+ -t 0.196816 -s 2 -d 1 -p ack -e 40 -c 2 -i 72 -a 2 -x {2.0 1.1 19 ------- null}
- -t 0.196816 -s 2 -d 1 -p ack -e 40 -c 2 -i 72 -a 2 -x {2.0 1.1 19 ------- null}
h -t 0.196816 -s 2 -d 1 -p ack -e 40 -c 2 -i 72 -a 2 -x {2.0 1.1 -1 ------- null}
+ -t 0.1975 -s 0 -d 1 -p cbr -e 210 -c 1 -i 73 -a 1 -x {0.0 1.0 26 ------- null}
- -t 0.1975 -s 0 -d 1 -p cbr -e 210 -c 1 -i 73 -a 1 -x {0.0 1.0 26 ------- null}
h -t 0.1975 -s 0 -d 1 -p cbr -e 210 -c 1 -i 73 -a 1 -x {0.0 1.0 -1 ------- null}
+ -t 0.1975 -s 1 -d 2 -p tcp -e 1040 -c 2 -i 74 -a 2 -x {1.1 2.0 27 ------- null}
- -t 0.1975 -s 1 -d 2 -p tcp -e 1040 -c 2 -i 74 -a 2 -x {1.1 2.0 27 ------- null}
h -t 0.1975 -s 1 -d 2 -p tcp -e 1040 -c 2 -i 74 -a 2 -x {1.1 2.0 -1 ------- null}
r -t 0.197648 -s 1 -d 2 -p tcp -e 1040 -c 2 -i 58 -a 2 -x {1.1 2.0 20 ------- null}
+ -t 0.197648 -s 2 -d 1 -p ack -e 40 -c 2 -i 75 -a 2 -x {2.0 1.1 20 ------- null}
- -t 0.197648 -s 2 -d 1 -p ack -e 40 -c 2 -i 75 -a 2 -x {2.0 1.1 20 ------- null}
h -t 0.197648 -s 2 -d 1 -p ack -e 40 -c 2 -i 75 -a 2 -x {2.0 1.1 -1 ------- null}
r -t 0.19848 -s 1 -d 2 -p tcp -e 1040 -c 2 -i 59 -a 2 -x {1.1 2.0 21 ------- null}
+ -t 0.19848 -s 2 -d 1 -p ack -e 40 -c 2 -i 76 -a 2 -x {2.0 1.1 21 ------- null}
- -t 0.19848 -s 2 -d 1 -p ack -e 40 -c 2 -i 76 -a 2 -x {2.0 1.1 21 ------- null}
h -t 0.19848 -s 2 -d 1 -p ack -e 40 -c 2 -i 76 -a 2 -x {2.0 1.1 -1 ------- null}
r -t 0.199312 -s 1 -d 2 -p tcp -e 1040 -c 2 -i 60 -a 2 -x {1.1 2.0 22 ------- null}
+ -t 0.199312 -s 2 -d 1 -p ack -e 40 -c 2 -i 77 -a 2 -x {2.0 1.1 22 ------- null}
- -t 0.199312 -s 2 -d 1 -p ack -e 40 -c 2 -i 77 -a 2 -x {2.0 1.1 22 ------- null}
h -t 0.199312 -s 2 -d 1 -p ack -e 40 -c 2 -i 77 -a 2 -x {2.0 1.1 -1 ------- null}
r -t 0.200144 -s 1 -d 2 -p tcp -e 1040 -c 2 -i 61 -a 2 -x {1.1 2.0 23 ------- null}
+ -t 0.200144 -s 2 -d 1 -p ack -e 40 -c 2 -i 78 -a 2 -x {2.0 1.1 23 ------- null}
- -t 0.200144 -s 2 -d 1 -p ack -e 40 -c 2 -i 78 -a 2 -x {2.0 1.1 23 ------- null}
h -t 0.200144 -s 2 -d 1 -p ack -e 40 -c 2 -i 78 -a 2 -x {2.0 1.1 -1 ------- null}
r -t 0.200168 -s 0 -d 1 -p cbr -e 210 -c 1 -i 64 -a 1 -x {0.0 1.0 24 ------- null}
r -t 0.200976 -s 1 -d 2 -p tcp -e 1040 -c 2 -i 63 -a 2 -x {1.1 2.0 24 ------- null}
+ -t 0.200976 -s 2 -d 1 -p ack -e 40 -c 2 -i 79 -a 2 -x {2.0 1.1 24 ------- null}
- -t 0.200976 -s 2 -d 1 -p ack -e 40 -c 2 -i 79 -a 2 -x {2.0 1.1 24 ------- null}
h -t 0.200976 -s 2 -d 1 -p ack -e 40 -c 2 -i 79 -a 2 -x {2.0 1.1 -1 ------- null}
+ -t 0.20125 -s 0 -d 1 -p cbr -e 210 -c 1 -i 80 -a 1 -x {0.0 1.0 27 ------- null}
- -t 0.20125 -s 0 -d 1 -p cbr -e 210 -c 1 -i 80 -a 1 -x {0.0 1.0 27 ------- null}
h -t 0.20125 -s 0 -d 1 -p cbr -e 210 -c 1 -i 80 -a 1 -x {0.0 1.0 -1 ------- null}
+ -t 0.20125 -s 1 -d 2 -p tcp -e 1040 -c 2 -i 81 -a 2 -x {1.1 2.0 28 ------- null}
- -t 0.20125 -s 1 -d 2 -p tcp -e 1040 -c 2 -i 81 -a 2 -x {1.1 2.0 28 ------- null}
h -t 0.20125 -s 1 -d 2 -p tcp -e 1040 -c 2 -i 81 -a 2 -x {1.1 2.0 -1 ------- null}
r -t 0.201808 -s 1 -d 2 -p tcp -e 1040 -c 2 -i 65 -a 2 -x {1.1 2.0 25 ------- null}
+ -t 0.201808 -s 2 -d 1 -p ack -e 40 -c 2 -i 82 -a 2 -x {2.0 1.1 25 ------- null}
- -t 0.201808 -s 2 -d 1 -p ack -e 40 -c 2 -i 82 -a 2 -x {2.0 1.1 25 ------- null}
h -t 0.201808 -s 2 -d 1 -p ack -e 40 -c 2 -i 82 -a 2 -x {2.0 1.1 -1 ------- null}
r -t 0.20352 -s 2 -d 1 -p ack -e 40 -c 2 -i 66 -a 2 -x {2.0 1.1 15 ------- null}
r -t 0.203918 -s 0 -d 1 -p cbr -e 210 -c 1 -i 67 -a 1 -x {0.0 1.0 25 ------- null}
r -t 0.204352 -s 2 -d 1 -p ack -e 40 -c 2 -i 69 -a 2 -x {2.0 1.1 16 ------- null}
r -t 0.204582 -s 1 -d 2 -p tcp -e 1040 -c 2 -i 68 -a 2 -x {1.1 2.0 26 ------- null}
+ -t 0.204582 -s 2 -d 1 -p ack -e 40 -c 2 -i 83 -a 2 -x {2.0 1.1 26 ------- null}
- -t 0.204582 -s 2 -d 1 -p ack -e 40 -c 2 -i 83 -a 2 -x {2.0 1.1 26 ------- null}
h -t 0.204582 -s 2 -d 1 -p ack -e 40 -c 2 -i 83 -a 2 -x {2.0 1.1 -1 ------- null}
+ -t 0.205 -s 0 -d 1 -p cbr -e 210 -c 1 -i 84 -a 1 -x {0.0 1.0 28 ------- null}
- -t 0.205 -s 0 -d 1 -p cbr -e 210 -c 1 -i 84 -a 1 -x {0.0 1.0 28 ------- null}
h -t 0.205 -s 0 -d 1 -p cbr -e 210 -c 1 -i 84 -a 1 -x {0.0 1.0 -1 ------- null}
+ -t 0.205 -s 1 -d 2 -p tcp -e 1040 -c 2 -i 85 -a 2 -x {1.1 2.0 29 ------- null}
- -t 0.205 -s 1 -d 2 -p tcp -e 1040 -c 2 -i 85 -a 2 -x {1.1 2.0 29 ------- null}
h -t 0.205 -s 1 -d 2 -p tcp -e 1040 -c 2 -i 85 -a 2 -x {1.1 2.0 -1 ------- null}
r -t 0.205184 -s 2 -d 1 -p ack -e 40 -c 2 -i 70 -a 2 -x {2.0 1.1 17 ------- null}
r -t 0.206016 -s 2 -d 1 -p ack -e 40 -c 2 -i 71 -a 2 -x {2.0 1.1 18 ------- null}
r -t 0.206848 -s 2 -d 1 -p ack -e 40 -c 2 -i 72 -a 2 -x {2.0 1.1 19 ------- null}
r -t 0.207668 -s 0 -d 1 -p cbr -e 210 -c 1 -i 73 -a 1 -x {0.0 1.0 26 ------- null}
r -t 0.20768 -s 2 -d 1 -p ack -e 40 -c 2 -i 75 -a 2 -x {2.0 1.1 20 ------- null}
r -t 0.208332 -s 1 -d 2 -p tcp -e 1040 -c 2 -i 74 -a 2 -x {1.1 2.0 27 ------- null}
+ -t 0.208332 -s 2 -d 1 -p ack -e 40 -c 2 -i 86 -a 2 -x {2.0 1.1 27 ------- null}
- -t 0.208332 -s 2 -d 1 -p ack -e 40 -c 2 -i 86 -a 2 -x {2.0 1.1 27 ------- null}
h -t 0.208332 -s 2 -d 1 -p ack -e 40 -c 2 -i 86 -a 2 -x {2.0 1.1 -1 ------- null}
r -t 0.208512 -s 2 -d 1 -p ack -e 40 -c 2 -i 76 -a 2 -x {2.0 1.1 21 ------- null}
+ -t 0.20875 -s 0 -d 1 -p cbr -e 210 -c 1 -i 87 -a 1 -x {0.0 1.0 29 ------- null}
- -t 0.20875 -s 0 -d 1 -p cbr -e 210 -c 1 -i 87 -a 1 -x {0.0 1.0 29 ------- null}
h -t 0.20875 -s 0 -d 1 -p cbr -e 210 -c 1 -i 87 -a 1 -x {0.0 1.0 -1 ------- null}
+ -t 0.20875 -s 1 -d 2 -p tcp -e 1040 -c 2 -i 88 -a 2 -x {1.1 2.0 30 ------- null}
- -t 0.20875 -s 1 -d 2 -p tcp -e 1040 -c 2 -i 88 -a 2 -x {1.1 2.0 30 ------- null}
h -t 0.20875 -s 1 -d 2 -p tcp -e 1040 -c 2 -i 88 -a 2 -x {1.1 2.0 -1 ------- null}
r -t 0.209344 -s 2 -d 1 -p ack -e 40 -c 2 -i 77 -a 2 -x {2.0 1.1 22 ------- null}
r -t 0.210176 -s 2 -d 1 -p ack -e 40 -c 2 -i 78 -a 2 -x {2.0 1.1 23 ------- null}
r -t 0.211008 -s 2 -d 1 -p ack -e 40 -c 2 -i 79 -a 2 -x {2.0 1.1 24 ------- null}
r -t 0.211418 -s 0 -d 1 -p cbr -e 210 -c 1 -i 80 -a 1 -x {0.0 1.0 27 ------- null}
r -t 0.21184 -s 2 -d 1 -p ack -e 40 -c 2 -i 82 -a 2 -x {2.0 1.1 25 ------- null}
r -t 0.212082 -s 1 -d 2 -p tcp -e 1040 -c 2 -i 81 -a 2 -x {1.1 2.0 28 ------- null}
+ -t 0.212082 -s 2 -d 1 -p ack -e 40 -c 2 -i 89 -a 2 -x {2.0 1.1 28 ------- null}
- -t 0.212082 -s 2 -d 1 -p ack -e 40 -c 2 -i 89 -a 2 -x {2.0 1.1 28 ------- null}
h -t 0.212082 -s 2 -d 1 -p ack -e 40 -c 2 -i 89 -a 2 -x {2.0 1.1 -1 ------- null}
+ -t 0.2125 -s 0 -d 1 -p cbr -e 210 -c 1 -i 90 -a 1 -x {0.0 1.0 30 ------- null}
- -t 0.2125 -s 0 -d 1 -p cbr -e 210 -c 1 -i 90 -a 1 -x {0.0 1.0 30 ------- null}
h -t 0.2125 -s 0 -d 1 -p cbr -e 210 -c 1 -i 90 -a 1 -x {0.0 1.0 -1 ------- null}
+ -t 0.2125 -s 1 -d 2 -p tcp -e 1040 -c 2 -i 91 -a 2 -x {1.1 2.0 31 ------- null}
- -t 0.2125 -s 1 -d 2 -p tcp -e 1040 -c 2 -i 91 -a 2 -x {1.1 2.0 31 ------- null}
h -t 0.2125 -s 1 -d 2 -p tcp -e 1040 -c 2 -i 91 -a 2 -x {1.1 2.0 -1 ------- null}
r -t 0.214614 -s 2 -d 1 -p ack -e 40 -c 2 -i 83 -a 2 -x {2.0 1.1 26 ------- null}
r -t 0.215168 -s 0 -d 1 -p cbr -e 210 -c 1 -i 84 -a 1 -x {0.0 1.0 28 ------- null}