V -t * -v 1.0a5 -a 0
A -t * -n 1 -p 0 -o 0x7fffffff -c 30 -a 1
A -t * -h 1 -m 1073741823 -s 0
c -t * -i 1 -n Blue
c -t * -i 2 -n Red
n -t * -a 4 -s 4 -S UP -v circle -c black -i black
n -t * -a 0 -s 0 -S UP -v circle -c black -i black
n -t * -a 5 -s 5 -S UP -v circle -c black -i black
n -t * -a 1 -s 1 -S UP -v circle -c black -i black
n -t * -a 2 -s 2 -S UP -v circle -c black -i black
n -t * -a 3 -s 3 -S UP -v circle -c black -i black
l -t * -s 0 -d 2 -S UP -r 2000000 -D 0.01 -c black -o right
l -t * -s 1 -d 2 -S UP -r 2000000 -D 0.01 -c black -o down
l -t * -s 2 -d 3 -S UP -r 1000000 -D 0.02 -c black -o right
l -t * -s 4 -d 3 -S UP -r 2000000 -D 0.01 -c black -o left
l -t * -s 5 -d 3 -S UP -r 2000000 -D 0.01 -c black -o down
+ -t 0.1 -s 0 -d 2 -p tcp -e 40 -c 1 -i 0 -a 1 -x {0.0 5.0 0 ------- null}
- -t 0.1 -s 0 -d 2 -p tcp -e 40 -c 1 -i 0 -a 1 -x {0.0 5.0 0 ------- null}
h -t 0.1 -s 0 -d 2 -p tcp -e 40 -c 1 -i 0 -a 1 -x {0.0 5.0 -1 ------- null}
r -t 0.11016 -s 0 -d 2 -p tcp -e 40 -c 1 -i 0 -a 1 -x {0.0 5.0 0 ------- null}
+ -t 0.11016 -s 2 -d 3 -p tcp -e 40 -c 1 -i 0 -a 1 -x {0.0 5.0 0 ------- null}
- -t 0.11016 -s 2 -d 3 -p tcp -e 40 -c 1 -i 0 -a 1 -x {0.0 5.0 0 ------- null}
h -t 0.11016 -s 2 -d 3 -p tcp -e 40 -c 1 -i 0 -a 1 -x {0.0 5.0 -1 ------- null}
r -t 0.13048 -s 2 -d 3 -p tcp -e 40 -c 1 -i 0 -a 1 -x {0.0 5.0 0 ------- null}
+ -t 0.13048 -s 3 -d 5 -p tcp -e 40 -c 1 -i 0 -a 1 -x {0.0 5.0 0 ------- null}
- -t 0.13048 -s 3 -d 5 -p tcp -e 40 -c 1 -i 0 -a 1 -x {0.0 5.0 0 ------- null}
h -t 0.13048 -s 3 -d 5 -p tcp -e 40 -c 1 -i 0 -a 1 -x {0.0 5.0 -1 ------- null}
r -t 0.14064 -s 3 -d 5 -p tcp -e 40 -c 1 -i 0 -a 1 -x {0.0 5.0 0 ------- null}
+ -t 0.14064 -s 5 -d 3 -p ack -e 40 -c 1 -i 1 -a 1 -x {5.0 0.0 0 ------- null}
- -t 0.14064 -s 5 -d 3 -p ack -e 40 -c 1 -i 1 -a 1 -x {5.0 0.0 0 ------- null}
h -t 0.14064 -s 5 -d 3 -p ack -e 40 -c 1 -i 1 -a 1 -x {5.0 0.0 -1 ------- null}
r -t 0.1508 -s 5 -d 3 -p ack -e 40 -c 1 -i 1 -a 1 -x {5.0 0.0 0 ------- null}
+ -t 0.1508 -s 3 -d 2 -p ack -e 40 -c 1 -i 1 -a 1 -x {5.0 0.0 0 ------- null}
- -t 0.1508 -s 3 -d 2 -p ack -e 40 -c 1 -i 1 -a 1 -x {5.0 0.0 0 ------- null}
h -t 0.1508 -s 3 -d 2 -p ack -e 40 -c 1 -i 1 -a 1 -x {5.0 0.0 -1 ------- null}
r -t 0.17112 -s 3 -d 2 -p ack -e 40 -c 1 -i 1 -a 1 -x {5.0 0.0 0 ------- null}
+ -t 0.17112 -s 2 -d 0 -p ack -e 40 -c 1 -i 1 -a 1 -x {5.0 0.0 0 ------- null}
- -t 0.17112 -s 2 -d 0 -p ack -e 40 -c 1 -i 1 -a 1 -x {5.0 0.0 0 ------- null}
h -t 0.17112 -s 2 -d 0 -p ack -e 40 -c 1 -i 1 -a 1 -x {5.0 0.0 -1 ------- null}
r -t 0.18128 -s 2 -d 0 -p ack -e 40 -c 1 -i 1 -a 1 -x {5.0 0.0 0 ------- null}
+ -t 0.18128 -s 0 -d 2 -p tcp -e 1040 -c 1 -i 2 -a 1 -x {0.0 5.0 1 ------- null}
- -t 0.18128 -s 0 -d 2 -p tcp -e 1040 -c 1 -i 2 -a 1 -x {0.0 5.0 1 ------- null}
h -t 0.18128 -s 0 -d 2 -p tcp -e 1040 -c 1 -i 2 -a 1 -x {0.0 5.0 -1 ------- null}
+ -t 0.18128 -s 0 -d 2 -p tcp -e 1040 -c 1 -i 3 -a 1 -x {0.0 5.0 2 ------- null}
- -t 0.18544 -s 0 -d 2 -p tcp -e 1040 -c 1 -i 3 -a 1 -x {0.0 5.0 2 ------- null}
h -t 0.18544 -s 0 -d 2 -p tcp -e 1040 -c 1 -i 3 -a 1 -x {0.0 5.0 -1 ------- null}
r -t 0.19544 -s 0 -d 2 -p tcp -e 1040 -c 1 -i 2 -a 1 -x {0.0 5.0 1 ------- null}
+ -t 0.19544 -s 2 -d 3 -p tcp -e 1040 -c 1 -i 2 -a 1 -x {0.0 5.0 1 ------- null}
- -t 0.19544 -s 2 -d 3 -p tcp -e 1040 -c 1 -i 2 -a 1 -x {0.0 5.0 1 ------- null}
h -t 0.19544 -s 2 -d 3 -p tcp -e 1040 -c 1 -i 2 -a 1 -x {0.0 5.0 -1 ------- null}
r -t 0.1996 -s 0 -d 2 -p tcp -e 1040 -c 1 -i 3 -a 1 -x {0.0 5.0 2 ------- null}
+ -t 0.1996 -s 2 -d 3 -p tcp -e 1040 -c 1 -i 3 -a 1 -x {0.0 5.0 2 ------- null}
- -t 0.20376 -s 2 -d 3 -p tcp -e 1040 -c 1 -i 3 -a 1 -x {0.0 5.0 2 ------- null}
h -t 0.20376 -s 2 -d 3 -p tcp -e 1040 -c 1 -i 3 -a 1 -x {0.0 5.0 -1 ------- null}
r -t 0.22376 -s 2 -d 3 -p tcp -e 1040 -c 1 -i 2 -a 1 -x {0.0 5.0 1 ------- null}
+ -t 0.22376 -s 3 -d 5 -p tcp -e 1040 -c 1 -i 2 -a 1 -x {0.0 5.0 1 ------- null}
- -t 0.22376 -s 3 -d 5 -p tcp -e 1040 -c 1 -i 2 -a 1 -x {0.0 5.0 1 ------- null}
h -t 0.22376 -s 3 -d 5 -p tcp -e 1040 -c 1 -i 2 -a 1 -x {0.0 5.0 -1 ------- null}
r -t 0.23208 -s 2 -d 3 -p tcp -e 1040 -c 1 -i 3 -a 1 -x {0.0 5.0 2 ------- null}
+ -t 0.23208 -s 3 -d 5 -p tcp -e 1040 -c 1 -i 3 -a 1 -x {0.0 5.0 2 ------- null}
- -t 0.23208 -s 3 -d 5 -p tcp -e 1040 -c 1 -i 3 -a 1 -x {0.0 5.0 2 ------- null}
h -t 0.23208 -s 3 -d 5 -p tcp -e 1040 -c 1 -i 3 -a 1 -x {0.0 5.0 -1 ------- null}
r -t 0.23792 -s 3 -d 5 -p tcp -e 1040 -c 1 -i 2 -a 1 -x {0.0 5.0 1 ------- null}
+ -t 0.23792 -s 5 -d 3 -p ack -e 40 -c 1 -i 4 -a 1 -x {5.0 0.0 1 ------- null}
- -t 0.23792 -s 5 -d 3 -p ack -e 40 -c 1 -i 4 -a 1 -x {5.0 0.0 1 ------- null}
h -t 0.23792 -s 5 -d 3 -p ack -e 40 -c 1 -i 4 -a 1 -x {5.0 0.0 -1 ------- null}
r -t 0.24624 -s 3 -d 5 -p tcp -e 1040 -c 1 -i 3 -a 1 -x {0.0 5.0 2 ------- null}
+ -t 0.24624 -s 5 -d 3 -p ack -e 40 -c 1 -i 5 -a 1 -x {5.0 0.0 2 ------- null}
- -t 0.24624 -s 5 -d 3 -p ack -e 40 -c 1 -i 5 -a 1 -x {5.0 0.0 2 ------- null}
h -t 0.24624 -s 5 -d 3 -p ack -e 40 -c 1 -i 5 -a 1 -x {5.0 0.0 -1 ------- null}
r -t 0.24808 -s 5 -d 3 -p ack -e 40 -c 1 -i 4 -a 1 -x {5.0 0.0 1 ------- null}
+ -t 0.24808 -s 3 -d 2 -p ack -e 40 -c 1 -i 4 -a 1 -x {5.0 0.0 1 ------- null}
- -t 0.24808 -s 3 -d 2 -p ack -e 40 -c 1 -i 4 -a 1 -x {5.0 0.0 1 ------- null}
h -t 0.24808 -s 3 -d 2 -p ack -e 40 -c 1 -i 4 -a 1 -x {5.0 0.0 -1 ------- null}
r -t 0.2564 -s 5 -d 3 -p ack -e 40 -c 1 -i 5 -a 1 -x {5.0 0.0 2 ------- null}
+ -t 0.2564 -s 3 -d 2 -p ack -e 40 -c 1 -i 5 -a 1 -x {5.0 0.0 2 ------- null}
- -t 0.2564 -s 3 -d 2 -p ack -e 40 -c 1 -i 5 -a 1 -x {5.0 0.0 2 ------- null}
h -t 0.2564 -s 3 -d 2 -p ack -e 40 -c 1 -i 5 -a 1 -x {5.0 0.0 -1 ------- null}
r -t 0.2684 -s 3 -d 2 -p ack -e 40 -c 1 -i 4 -a 1 -x {5.0 0.0 1 ------- null}
+ -t 0.2684 -s 2 -d 0 -p ack -e 40 -c 1 -i 4 -a 1 -x {5.0 0.0 1 ------- null}
- -t 0.2684 -s 2 -d 0 -p ack -e 40 -c 1 -i 4 -a 1 -x {5.0 0.0 1 ------- null}
h -t 0.2684 -s 2 -d 0 -p ack -e 40 -c 1 -i 4 -a 1 -x {5.0 0.0 -1 ------- null}
r -t 0.27672 -s 3 -d 2 -p ack -e 40 -c 1 -i 5 -a 1 -x {5.0 0.0 2 ------- null}
+ -t 0.27672 -s 2 -d 0 -p ack -e 40 -c 1 -i 5 -a 1 -x {5.0 0.0 2 ------- null}
- -t 0.27672 -s 2 -d 0 -p ack -e 40 -c 1 -i 5 -a 1 -x {5.0 0.0 2 ------- null}
h -t 0.27672 -s 2 -d 0 -p ack -e 40 -c 1 -i 5 -a 1 -x {5.0 0.0 -1 ------- null}
r -t 0.27856 -s 2 -d 0 -p ack -e 40 -c 1 -i 4 -a 1 -x {5.0 0.0 1 ------- null}
+ -t 0.27856 -s 0 -d 2 -p tcp -e 1040 -c 1 -i 6 -a 1 -x {0.0 5.0 3 ------- null}
- -t 0.27856 -s 0 -d 2 -p tcp -e 1040 -c 1 -i 6 -a 1 -x {0.0 5.0 3 ------- null}
h -t 0.27856 -s 0 -d 2 -p tcp -e 1040 -c 1 -i 6 -a 1 -x {0.0 5.0 -1 ------- null}
+ -t 0.27856 -s 0 -d 2 -p tcp -e 1040 -c 1 -i 7 -a 1 -x {0.0 5.0 4 ------- null}
- -t 0.28272 -s 0 -d 2 -p tcp -e 1040 -c 1 -i 7 -a 1 -x {0.0 5.0 4 ------- null}
h -t 0.28272 -s 0 -d 2 -p tcp -e 1040 -c 1 -i 7 -a 1 -x {0.0 5.0 -1 ------- null}
r -t 0.28688 -s 2 -d 0 -p ack -e 40 -c 1 -i 5 -a 1 -x {5.0 0.0 2 ------- null}
+ -t 0.28688 -s 0 -d 2 -p tcp -e 1040 -c 1 -i 8 -a 1 -x {0.0 5.0 5 ------- null}
+ -t 0.28688 -s 0 -d 2 -p tcp -e 1040 -c 1 -i 9 -a 1 -x {0.0 5.0 6 ------- null}
- -t 0.28688 -s 0 -d 2 -p tcp -e 1040 -c 1 -i 8 -a 1 -x {0.0 5.0 5 ------- null}
h -t 0.28688 -s 0 -d 2 -p tcp -e 1040 -c 1 -i 8 -a 1 -x {0.0 5.0 -1 ------- null}
- -t 0.29104 -s 0 -d 2 -p tcp -e 1040 -c 1 -i 9 -a 1 -x {0.0 5.0 6 ------- null}
h -t 0.29104 -s 0 -d 2 -p tcp -e 1040 -c 1 -i 9 -a 1 -x {0.0 5.0 -1 ------- null}
r -t 0.29272 -s 0 -d 2 -p tcp -e 1040 -c 1 -i 6 -a 1 -x {0.0 5.0 3 ------- null}
+ -t 0.29272 -s 2 -d 3 -p tcp -e 1040 -c 1 -i 6 -a 1 -x {0.0 5.0 3 ------- null}
- -t 0.29272 -s 2 -d 3 -p tcp -e 1040 -c 1 -i 6 -a 1 -x {0.0 5.0 3 ------- null}
h -t 0.29272 -s 2 -d 3 -p tcp -e 1040 -c 1 -i 6 -a 1 -x {0.0 5.0 -1 ------- null}
r -t 0.29688 -s 0 -d 2 -p tcp -e 1040 -c 1 -i 7 -a 1 -x {0.0 5.0 4 ------- null}
+ -t 0.29688 -s 2 -d 3 -p tcp -e 1040 -c 1 -i 7 -a 1 -x {0.0 5.0 4 ------- null}
r -t 0.30104 -s 0 -d 2 -p tcp -e 1040 -c 1 -i 8 -a 1 -x {0.0 5.0 5 ------- null}
+ -t 0.30104 -s 2 -d 3 -p tcp -e 1040 -c 1 -i 8 -a 1 -x {0.0 5.0 5 ------- null}
d -t 0.30104 -s 2 -d 3 -p tcp -e 1040 -c 1 -i 8 -a 1 -x {0.0 5.0 5 ------- null}
- -t 0.30104 -s 2 -d 3 -p tcp -e 1040 -c 1 -i 7 -a 1 -x {0.0 5.0 4 ------- null}
h -t 0.30104 -s 2 -d 3 -p tcp -e 1040 -c 1 -i 7 -a 1 -x {0.0 5.0 -1 ------- null}
r -t 0.3052 -s 0 -d 2 -p tcp -e 1040 -c 1 -i 9 -a 1 -x {0.0 5.0 6 ------- null}
+ -t 0.3052 -s 2 -d 3 -p tcp -e 1040 -c 1 -i 9 -a 1 -x {0.0 5.0 6 ------- null}
- -t 0.30936 -s 2 -d 3 -p tcp -e 1040 -c 1 -i 9 -a 1 -x {0.0 5.0 6 ------- null}
h -t 0.30936 -s 2 -d 3 -p tcp -e 1040 -c 1 -i 9 -a 1 -x {0.0 5.0 -1 ------- null}
r -t 0.32104 -s 2 -d 3 -p tcp -e 1040 -c 1 -i 6 -a 1 -x {0.0 5.0 3 ------- null}
+ -t 0.32104 -s 3 -d 5 -p tcp -e 1040 -c 1 -i 6 -a 1 -x {0.0 5.0 3 ------- null}
- -t 0.32104 -s 3 -d 5 -p tcp -e 1040 -c 1 -i 6 -a 1 -x {0.0 5.0 3 ------- null}
h -t 0.32104 -s 3 -d 5 -p tcp -e 1040 -c 1 -i 6 -a 1 -x {0.0 5.0 -1 ------- null}
r -t 0.32936 -s 2 -d 3 -p tcp -e 1040 -c 1 -i 7 -a 1 -x {0.0 5.0 4 ------- null}
+ -t 0.32936 -s 3 -d 5 -p tcp -e 1040 -c 1 -i 7 -a 1 -x {0.0 5.0 4 ------- null}
- -t 0.32936 -s 3 -d 5 -p tcp -e 1040 -c 1 -i 7 -a 1 -x {0.0 5.0 4 ------- null}
h -t 0.32936 -s 3 -d 5 -p tcp -e 1040 -c 1 -i 7 -a 1 -x {0.0 5.0 -1 ------- null}
r -t 0.3352 -s 3 -d 5 -p tcp -e 1040 -c 1 -i 6 -a 1 -x {0.0 5.0 3 ------- null}
+ -t 0.3352 -s 5 -d 3 -p ack -e 40 -c 1 -i 10 -a 1 -x {5.0 0.0 3 ------- null}
- -t 0.3352 -s 5 -d 3 -p ack -e 40 -c 1 -i 10 -a 1 -x {5.0 0.0 3 ------- null}
h -t 0.3352 -s 5 -d 3 -p ack -e 40 -c 1 -i 10 -a 1 -x {5.0 0.0 -1 ------- null}
r -t 0.33768 -s 2 -d 3 -p tcp -e 1040 -c 1 -i 9 -a 1 -x {0.0 5.0 6 ------- null}
+ -t 0.33768 -s 3 -d 5 -p tcp -e 1040 -c 1 -i 9 -a 1 -x {0.0 5.0 6 ------- null}
- -t 0.33768 -s 3 -d 5 -p tcp -e 1040 -c 1 -i 9 -a 1 -x {0.0 5.0 6 ------- null}
h -t 0.33768 -s 3 -d 5 -p tcp -e 1040 -c 1 -i 9 -a 1 -x {0.0 5.0 -1 ------- null}
r -t 0.34352 -s 3 -d 5 -p tcp -e 1040 -c 1 -i 7 -a 1 -x {0.0 5.0 4 ------- null}
+ -t 0.34352 -s 5 -d 3 -p ack -e 40 -c 1 -i 11 -a 1 -x {5.0 0.0 4 ------- null}
- -t 0.34352 -s 5 -d 3 -p ack -e 40 -c 1 -i 11 -a 1 -x {5.0 0.0 4 ------- null}
h -t 0.34352 -s 5 -d 3 -p ack -e 40 -c 1 -i 11 -a 1 -x {5.0 0.0 -1 ------- null}
r -t 0.34536 -s 5 -d 3 -p ack -e 40 -c 1 -i 10 -a 1 -x {5.0 0.0 3 ------- null}
+ -t 0.34536 -s 3 -d 2 -p ack -e 40 -c 1 -i 10 -a 1 -x {5.0 0.0 3 ------- null}
- -t 0.34536 -s 3 -d 2 -p ack -e 40 -c 1 -i 10 -a 1 -x {5.0 0.0 3 ------- null}
h -t 0.34536 -s 3 -d 2 -p ack -e 40 -c 1 -i 10 -a 1 -x {5.0 0.0 -1 ------- null}
r -t 0.35184 -s 3 -d 5 -p tcp -e 1040 -c 1 -i 9 -a 1 -x {0.0 5.0 6 ------- null}
+ -t 0.35184 -s 5 -d 3 -p ack -e 40 -c 1 -i 12 -a 1 -x {5.0 0.0 4 ------- null}
- -t 0.35184 -s 5 -d 3 -p ack -e 40 -c 1 -i 12 -a 1 -x {5.0 0.0 4 ------- null}
h -t 0.35184 -s 5 -d 3 -p ack -e 40 -c 1 -i 12 -a 1 -x {5.0 0.0 -1 ------- null}
r -t 0.35368 -s 5 -d 3 -p ack -e 40 -c 1 -i 11 -a 1 -x {5.0 0.0 4 ------- null}
+ -t 0.35368 -s 3 -d 2 -p ack -e 40 -c 1 -i 11 -a 1 -x {5.0 0.0 4 ------- null}
- -t 0.35368 -s 3 -d 2 -p ack -e 40 -c 1 -i 11 -a 1 -x {5.0 0.0 4 ------- null}
h -t 0.35368 -s 3 -d 2 -p ack -e 40 -c 1 -i 11 -a 1 -x {5.0 0.0 -1 ------- null}
r -t 0.362 -s 5 -d 3 -p ack -e 40 -c 1 -i 12 -a 1 -x {5.0 0.0 4 ------- null}
+ -t 0.362 -s 3 -d 2 -p ack -e 40 -c 1 -i 12 -a 1 -x {5.0 0.0 4 ------- null}
- -t 0.362 -s 3 -d 2 -p ack -e 40 -c 1 -i 12 -a 1 -x {5.0 0.0 4 ------- null}
h -t 0.362 -s 3 -d 2 -p ack -e 40 -c 1 -i 12 -a 1 -x {5.0 0.0 -1 ------- null}
r -t 0.36568 -s 3 -d 2 -p ack -e 40 -c 1 -i 10 -a 1 -x {5.0 0.0 3 ------- null}
+ -t 0.36568 -s 2 -d 0 -p ack -e 40 -c 1 -i 10 -a 1 -x {5.0 0.0 3 ------- null}
- -t 0.36568 -s 2 -d 0 -p ack -e 40 -c 1 -i 10 -a 1 -x {5.0 0.0 3 ------- null}
h -t 0.36568 -s 2 -d 0 -p ack -e 40 -c 1 -i 10 -a 1 -x {5.0 0.0 -1 ------- null}
r -t 0.374 -s 3 -d 2 -p ack -e 40 -c 1 -i 11 -a 1 -x {5.0 0.0 4 ------- null}
+ -t 0.374 -s 2 -d 0 -p ack -e 40 -c 1 -i 11 -a 1 -x {5.0 0.0 4 ------- null}
- -t 0.374 -s 2 -d 0 -p ack -e 40 -c 1 -i 11 -a 1 -x {5.0 0.0 4 ------- null}
h -t 0.374 -s 2 -d 0 -p ack -e 40 -c 1 -i 11 -a 1 -x {5.0 0.0 -1 ------- null}
r -t 0.37584 -s 2 -d 0 -p ack -e 40 -c 1 -i 10 -a 1 -x {5.0 0.0 3 ------- null}
+ -t 0.37584 -s 0 -d 2 -p tcp -e 1040 -c 1 -i 13 -a 1 -x {0.0 5.0 7 ------- null}
- -t 0.37584 -s 0 -d 2 -p tcp -e 1040 -c 1 -i 13 -a 1 -x {0.0 5.0 7 ------- null}
h -t 0.37584 -s 0 -d 2 -p tcp -e 1040 -c 1 -i 13 -a 1 -x {0.0 5.0 -1 ------- null}
+ -t 0.37584 -s 0 -d 2 -p tcp -e 1040 -c 1 -i 14 -a 1 -x {0.0 5.0 8 ------- null}
- -t 0.38 -s 0 -d 2 -p tcp -e 1040 -c 1 -i 14 -a 1 -x {0.0 5.0 8 ------- null}
h -t 0.38 -s 0 -d 2 -p tcp -e 1040 -c 1 -i 14 -a 1 -x {0.0 5.0 -1 ------- null}
r -t 0.38232 -s 3 -d 2 -p ack -e 40 -c 1 -i 12 -a 1 -x {5.0 0.0 4 ------- null}
+ -t 0.38232 -s 2 -d 0 -p ack -e 40 -c 1 -i 12 -a 1 -x {5.0 0.0 4 ------- null}
- -t 0.38232 -s 2 -d 0 -p ack -e 40 -c 1 -i 12 -a 1 -x {5.0 0.0 4 ------- null}
h -t 0.38232 -s 2 -d 0 -p ack -e 40 -c 1 -i 12 -a 1 -x {5.0 0.0 -1 ------- null}
r -t 0.38416 -s 2 -d 0 -p ack -e 40 -c 1 -i 11 -a 1 -x {5.0 0.0 4 ------- null}
+ -t 0.38416 -s 0 -d 2 -p tcp -e 1040 -c 1 -i 15 -a 1 -x {0.0 5.0 9 ------- null}
+ -t 0.38416 -s 0 -d 2 -p tcp -e 1040 -c 1 -i 16 -a 1 -x {0.0 5.0 10 ------- null}
- -t 0.38416 -s 0 -d 2 -p tcp -e 1040 -c 1 -i 15 -a 1 -x {0.0 5.0 9 ------- null}
h -t 0.38416 -s 0 -d 2 -p tcp -e 1040 -c 1 -i 15 -a 1 -x {0.0 5.0 -1 ------- null}
- -t 0.38832 -s 0 -d 2 -p tcp -e 1040 -c 1 -i 16 -a 1 -x {0.0 5.0 10 ------- null}
h -t 0.38832 -s 0 -d 2 -p tcp -e 1040 -c 1 -i 16 -a 1 -x {0.0 5.0 -1 ------- null}
r -t 0.39 -s 0 -d 2 -p tcp -e 1040 -c 1 -i 13 -a 1 -x {0.0 5.0 7 ------- null}
+ -t 0.39 -s 2 -d 3 -p tcp -e 1040 -c 1 -i 13 -a 1 -x {0.0 5.0 7 ------- null}
- -t 0.39 -s 2 -d 3 -p tcp -e 1040 -c 1 -i 13 -a 1 -x {0.0 5.0 7 ------- null}
h -t 0.39 -s 2 -d 3 -p tcp -e 1040 -c 1 -i 13 -a 1 -x {0.0 5.0 -1 ------- null}
r -t 0.39248 -s 2 -d 0 -p ack -e 40 -c 1 -i 12 -a 1 -x {5.0 0.0 4 ------- null}
+ -t 0.39248 -s 0 -d 2 -p tcp -e 1040 -c 1 -i 17 -a 1 -x {0.0 5.0 11 ------- null}
- -t 0.39248 -s 0 -d 2 -p tcp -e 1040 -c 1 -i 17 -a 1 -x {0.0 5.0 11 ------- null}
h -t 0.39248 -s 0 -d 2 -p tcp -e 1040 -c 1 -i 17 -a 1 -x {0.0 5.0 -1 ------- null}
r -t 0.39416 -s 0 -d 2 -p tcp -e 1040 -c 1 -i 14 -a 1 -x {0.0 5.0 8 ------- null}
+ -t 0.39416 -s 2 -d 3 -p tcp -e 1040 -c 1 -i 14 -a 1 -x {0.0 5.0 8 ------- null}
r -t 0.39832 -s 0 -d 2 -p tcp -e 1040 -c 1 -i 15 -a 1 -x {0.0 5.0 9 ------- null}
+ -t 0.39832 -s 2 -d 3 -p tcp -e 1040 -c 1 -i 15 -a 1 -x {0.0 5.0 9 ------- null}
d -t 0.39832 -s 2 -d 3 -p tcp -e 1040 -c 1 -i 15 -a 1 -x {0.0 5.0 9 ------- null}
- -t 0.39832 -s 2 -d 3 -p tcp -e 1040 -c 1 -i 14 -a 1 -x {0.0 5.0 8 ------- null}
h -t 0.39832 -s 2 -d 3 -p tcp -e 1040 -c 1 -i 14 -a 1 -x {0.0 5.0 -1 ------- null}
r -t 0.40248 -s 0 -d 2 -p tcp -e 1040 -c 1 -i 16 -a 1 -x {0.0 5.0 10 ------- null}
+ -t 0.40248 -s 2 -d 3 -p tcp -e 1040 -c 1 -i 16 -a 1 -x {0.0 5.0 10 ------- null}
r -t 0.40664 -s 0 -d 2 -p tcp -e 1040 -c 1 -i 17 -a 1 -x {0.0 5.0 11 ------- null}
+ -t 0.40664 -s 2 -d 3 -p tcp -e 1040 -c 1 -i 17 -a 1 -x {0.0 5.0 11 ------- null}
d -t 0.40664 -s 2 -d 3 -p tcp -e 1040 -c 1 -i 17 -a 1 -x {0.0 5.0 11 ------- null}
- -t 0.40664 -s 2 -d 3 -p tcp -e 1040 -c 1 -i 16 -a 1 -x {0.0 5.0 10 ------- null}
h -t 0.40664 -s 2 -d 3 -p tcp -e 1040 -c 1 -i 16 -a 1 -x {0.0 5.0 -1 ------- null}
r -t 0.41832 -s 2 -d 3 -p tcp -e 1040 -c 1 -i 13 -a 1 -x {0.0 5.0 7 ------- null}
+ -t 0.41832 -s 3 -d 5 -p tcp -e 1040 -c 1 -i 13 -a 1 -x {0.0 5.0 7 ------- null}
- -t 0.41832 -s 3 -d 5 -p tcp -e 1040 -c 1 -i 13 -a 1 -x {0.0 5.0 7 ------- null}
h -t 0.41832 -s 3 -d 5 -p tcp -e 1040 -c 1 -i 13 -a 1 -x {0.0 5.0 -1 ------- null}
r -t 0.42664 -s 2 -d 3 -p tcp -e 1040 -c 1 -i 14 -a 1 -x {0.0 5.0 8 ------- null}
+ -t 0.42664 -s 3 -d 5 -p tcp -e 1040 -c 1 -i 14 -a 1 -x {0.0 5.0 8 ------- null}
- -t 0.42664 -s 3 -d 5 -p tcp -e 1040 -c 1 -i 14 -a 1 -x {0.0 5.0 8 ------- null}
h -t 0.42664 -s 3 -d 5 -p tcp -e 1040 -c 1 -i 14 -a 1 -x {0.0 5.0 -1 ------- null}
r -t 0.43248 -s 3 -d 5 -p tcp -e 1040 -c 1 -i 13 -a 1 -x {0.0 5.0 7 ------- null}
+ -t 0.43248 -s 5 -d 3 -p ack -e 40 -c 1 -i 18 -a 1 -x {5.0 0.0 4 ------- null}
- -t 0.43248 -s 5 -d 3 -p ack -e 40 -c 1 -i 18 -a 1 -x {5.0 0.0 4 ------- null}
h -t 0.43248 -s 5 -d 3 -p ack -e 40 -c 1 -i 18 -a 1 -x {5.0 0.0 -1 ------- null}
r -t 0.43496 -s 2 -d 3 -p tcp -e 1040 -c 1 -i 16 -a 1 -x {0.0 5.0 10 ------- null}
+ -t 0.43496 -s 3 -d 5 -p tcp -e 1040 -c 1 -i 16 -a 1 -x {0.0 5.0 10 ------- null}
- -t 0.43496 -s 3 -d 5 -p tcp -e 1040 -c 1 -i 16 -a 1 -x {0.0 5.0 10 ------- null}
h -t 0.43496 -s 3 -d 5 -p tcp -e 1040 -c 1 -i 16 -a 1 -x {0.0 5.0 -1 ------- null}
r -t 0.4408 -s 3 -d 5 -p tcp -e 1040 -c 1 -i 14 -a 1 -x {0.0 5.0 8 ------- null}
+ -t 0.4408 -s 5 -d 3 -p ack -e 40 -c 1 -i 19 -a 1 -x {5.0 0.0 4 ------- null}
- -t 0.4408 -s 5 -d 3 -p ack -e 40 -c 1 -i 19 -a 1 -x {5.0 0.0 4 ------- null}
h -t 0.4408 -s 5 -d 3 -p ack -e 40 -c 1 -i 19 -a 1 -x {5.0 0.0 -1 ------- null}
r -t 0.44264 -s 5 -d 3 -p ack -e 40 -c 1 -i 18 -a 1 -x {5.0 0.0 4 ------- null}
+ -t 0.44264 -s 3 -d 2 -p ack -e 40 -c 1 -i 18 -a 1 -x {5.0 0.0 4 ------- null}
- -t 0.44264 -s 3 -d 2 -p ack -e 40 -c 1 -i 18 -a 1 -x {5.0 0.0 4 ------- null}
h -t 0.44264 -s 3 -d 2 -p ack -e 40 -c 1 -i 18 -a 1 -x {5.0 0.0 -1 ------- null}
r -t 0.44912 -s 3 -d 5 -p tcp -e 1040 -c 1 -i 16 -a 1 -x {0.0 5.0 10 ------- null}
+ -t 0.44912 -s 5 -d 3 -p ack -e 40 -c 1 -i 20 -a 1 -x {5.0 0.0 4 ------- null}
- -t 0.44912 -s 5 -d 3 -p ack -e 40 -c 1 -i 20 -a 1 -x {5.0 0.0 4 ------- null}
h -t 0.44912 -s 5 -d 3 -p ack -e 40 -c 1 -i 20 -a 1 -x {5.0 0.0 -1 ------- null}
r -t 0.45096 -s 5 -d 3 -p ack -e 40 -c 1 -i 19 -a 1 -x {5.0 0.0 4 ------- null}
+ -t 0.45096 -s 3 -d 2 -p ack -e 40 -c 1 -i 19 -a 1 -x {5.0 0.0 4 ------- null}
- -t 0.45096 -s 3 -d 2 -p ack -e 40 -c 1 -i 19 -a 1 -x {5.0 0.0 4 ------- null}
h -t 0.45096 -s 3 -d 2 -p ack -e 40 -c 1 -i 19 -a 1 -x {5.0 0.0 -1 ------- null}
r -t 0.45928 -s 5 -d 3 -p ack -e 40 -c 1 -i 20 -a 1 -x {5.0 0.0 4 ------- null}
+ -t 0.45928 -s 3 -d 2 -p ack -e 40 -c 1 -i 20 -a 1 -x {5.0 0.0 4 ------- null}
- -t 0.45928 -s 3 -d 2 -p ack -e 40 -c 1 -i 20 -a 1 -x {5.0 0.0 4 ------- null}
h -t 0.45928 -s 3 -d 2 -p ack -e 40 -c 1 -i 20 -a 1 -x {5.0 0.0 -1 ------- null}
r -t 0.46296 -s 3 -d 2 -p ack -e 40 -c 1 -i 18 -a 1 -x {5.0 0.0 4 ------- null}
+ -t 0.46296 -s 2 -d 0 -p ack -e 40 -c 1 -i 18 -a 1 -x {5.0 0.0 4 ------- null}
- -t 0.46296 -s 2 -d 0 -p ack -e 40 -c 1 -i 18 -a 1 -x {5.0 0.0 4 ------- null}
h -t 0.46296 -s 2 -d 0 -p ack -e 40 -c 1 -i 18 -a 1 -x {5.0 0.0 -1 ------- null}
r -t 0.47128 -s 3 -d 2 -p ack -e 40 -c 1 -i 19 -a 1 -x {5.0 0.0 4 ------- null}
+ -t 0.47128 -s 2 -d 0 -p ack -e 40 -c 1 -i 19 -a 1 -x {5.0 0.0 4 ------- null}
- -t 0.47128 -s 2 -d 0 -p ack -e 40 -c 1 -i 19 -a 1 -x {5.0 0.0 4 ------- null}
h -t 0.47128 -s 2 -d 0 -p ack -e 40 -c 1 -i 19 -a 1 -x {5.0 0.0 -1 ------- null}
r -t 0.47312 -s 2 -d 0 -p ack -e 40 -c 1 -i 18 -a 1 -x {5.0 0.0 4 ------- null}
+ -t 0.47312 -s 0 -d 2 -p tcp -e 1040 -c 1 -i 21 -a 1 -x {0.0 5.0 12 ------- null}
- -t 0.47312 -s 0 -d 2 -p tcp -e 1040 -c 1 -i 21 -a 1 -x {0.0 5.0 12 ------- null}
h -t 0.47312 -s 0 -d 2 -p tcp -e 1040 -c 1 -i 21 -a 1 -x {0.0 5.0 -1 ------- null}
r -t 0.4796 -s 3 -d 2 -p ack -e 40 -c 1 -i 20 -a 1 -x {5.0 0.0 4 ------- null}
+ -t 0.4796 -s 2 -d 0 -p ack -e 40 -c 1 -i 20 -a 1 -x {5.0 0.0 4 ------- null}
- -t 0.4796 -s 2 -d 0 -p ack -e 40 -c 1 -i 20 -a 1 -x {5.0 0.0 4 ------- null}
h -t 0.4796 -s 2 -d 0 -p ack -e 40 -c 1 -i 20 -a 1 -x {5.0 0.0 -1 ------- null}
r -t 0.48144 -s 2 -d 0 -p ack -e 40 -c 1 -i 19 -a 1 -x {5.0 0.0 4 ------- null}
+ -t 0.48144 -s 0 -d 2 -p tcp -e 1040 -c 1 -i 22 -a 1 -x {0.0 5.0 5 ---A--- null}
- -t 0.48144 -s 0 -d 2 -p tcp -e 1040 -c 1 -i 22 -a 1 -x {0.0 5.0 5 ---A--- null}
h -t 0.48144 -s 0 -d 2 -p tcp -e 1040 -c 1 -i 22 -a 1 -x {0.0 5.0 -1 ---A--- null}
r -t 0.48728 -s 0 -d 2 -p tcp -e 1040 -c 1 -i 21 -a 1 -x {0.0 5.0 12 ------- null}
+ -t 0.48728 -s 2 -d 3 -p tcp -e 1040 -c 1 -i 21 -a 1 -x {0.0 5.0 12 ------- null}
- -t 0.48728 -s 2 -d 3 -p tcp -e 1040 -c 1 -i 21 -a 1 -x {0.0 5.0 12 ------- null}
h -t 0.48728 -s 2 -d 3 -p tcp -e 1040 -c 1 -i 21 -a 1 -x {0.0 5.0 -1 ------- null}
r -t 0.48976 -s 2 -d 0 -p ack -e 40 -c 1 -i 20 -a 1 -x {5.0 0.0 4 ------- null}
r -t 0.4956 -s 0 -d 2 -p tcp -e 1040 -c 1 -i 22 -a 1 -x {0.0 5.0 5 ---A--- null}
+ -t 0.4956 -s 2 -d 3 -p tcp -e 1040 -c 1 -i 22 -a 1 -x {0.0 5.0 5 ---A--- null}
- -t 0.4956 -s 2 -d 3 -p tcp -e 1040 -c 1 -i 22 -a 1 -x {0.0 5.0 5 ---A--- null}
h -t 0.4956 -s 2 -d 3 -p tcp -e 1040 -c 1 -i 22 -a 1 -x {0.0 5.0 -1 ---A--- null}
r -t 0.5156 -s 2 -d 3 -p tcp -e 1040 -c 1 -i 21 -a 1 -x {0.0 5.0 12 ------- null}
+ -t 0.5156 -s 3 -d 5 -p tcp -e 1040 -c 1 -i 21 -a 1 -x {0.0 5.0 12 ------- null}
- -t 0.5156 -s 3 -d 5 -p tcp -e 1040 -c 1 -i 21 -a 1 -x {0.0 5.0 12 ------- null}
h -t 0.5156 -s 3 -d 5 -p tcp -e 1040 -c 1 -i 21 -a 1 -x {0.0 5.0 -1 ------- null}
r -t 0.52392 -s 2 -d 3 -p tcp -e 1040 -c 1 -i 22 -a 1 -x {0.0 5.0 5 ---A--- null}
+ -t 0.52392 -s 3 -d 5 -p tcp -e 1040 -c 1 -i 22 -a 1 -x {0.0 5.0 5 ---A--- null}
- -t 0.52392 -s 3 -d 5 -p tcp -e 1040 -c 1 -i 22 -a 1 -x {0.0 5.0 5 ---A--- null}
h -t 0.52392 -s 3 -d 5 -p tcp -e 1040 -c 1 -i 22 -a 1 -x {0.0 5.0 -1 ---A--- null}
r -t 0.52976 -s 3 -d 5 -p tcp -e 1040 -c 1 -i 21 -a 1 -x {0.0 5.0 12 ------- null}
+ -t 0.52976 -s 5 -d 3 -p ack -e 40 -c 1 -i 23 -a 1 -x {5.0 0.0 4 ------- null}
- -t 0.52976 -s 5 -d 3 -p ack -e 40 -c 1 -i 23 -a 1 -x {5.0 0.0 4 ------- null}
h -t 0.52976 -s 5 -d 3 -p ack -e 40 -c 1 -i 23 -a 1 -x {5.0 0.0 -1 ------- null}
r -t 0.53808 -s 3 -d 5 -p tcp -e 1040 -c 1 -i 22 -a 1 -x {0.0 5.0 5 ---A--- null}
+ -t 0.53808 -s 5 -d 3 -p ack -e 40 -c 1 -i 24 -a 1 -x {5.0 0.0 8 ------- null}
- -t 0.53808 -s 5 -d 3 -p ack -e 40 -c 1 -i 24 -a 1 -x {5.0 0.0 8 ------- null}
h -t 0.53808 -s 5 -d 3 -p ack -e 40 -c 1 -i 24 -a 1 -x {5.0 0.0 -1 ------- null}
r -t 0.53992 -s 5 -d 3 -p ack -e 40 -c 1 -i 23 -a 1 -x {5.0 0.0 4 ------- null}
+ -t 0.53992 -s 3 -d 2 -p ack -e 40 -c 1 -i 23 -a 1 -x {5.0 0.0 4 ------- null}
- -t 0.53992 -s 3 -d 2 -p ack -e 40 -c 1 -i 23 -a 1 -x {5.0 0.0 4 ------- null}
h -t 0.53992 -s 3 -d 2 -p ack -e 40 -c 1 -i 23 -a 1 -x {5.0 0.0 -1 ------- null}
r -t 0.54824 -s 5 -d 3 -p ack -e 40 -c 1 -i 24 -a 1 -x {5.0 0.0 8 ------- null}
+ -t 0.54824 -s 3 -d 2 -p ack -e 40 -c 1 -i 24 -a 1 -x {5.0 0.0 8 ------- null}
- -t 0.54824 -s 3 -d 2 -p ack -e 40 -c 1 -i 24 -a 1 -x {5.0 0.0 8 ------- null}
h -t 0.54824 -s 3 -d 2 -p ack -e 40 -c 1 -i 24 -a 1 -x {5.0 0.0 -1 ------- null}
r -t 0.56024 -s 3 -d 2 -p ack -e 40 -c 1 -i 23 -a 1 -x {5.0 0.0 4 ------- null}
+ -t 0.56024 -s 2 -d 0 -p ack -e 40 -c 1 -i 23 -a 1 -x {5.0 0.0 4 ------- null}
- -t 0.56024 -s 2 -d 0 -p ack -e 40 -c 1 -i 23 -a 1 -x {5.0 0.0 4 ------- null}
h -t 0.56024 -s 2 -d 0 -p ack -e 40 -c 1 -i 23 -a 1 -x {5.0 0.0 -1 ------- null}
r -t 0.56856 -s 3 -d 2 -p ack -e 40 -c 1 -i 24 -a 1 -x {5.0 0.0 8 ------- null}
+ -t 0.56856 -s 2 -d 0 -p ack -e 40 -c 1 -i 24 -a 1 -x {5.0 0.0 8 ------- null}
- -t 0.56856 -s 2 -d 0 -p ack -e 40 -c 1 -i 24 -a 1 -x {5.0 0.0 8 ------- null}
h -t 0.56856 -s 2 -d 0 -p ack -e 40 -c 1 -i 24 -a 1 -x {5.0 0.0 -1 ------- null}
r -t 0.5704 -s 2 -d 0 -p ack -e 40 -c 1 -i 23 -a 1 -x {5.0 0.0 4 ------- null}
r -t 0.57872 -s 2 -d 0 -p ack -e 40 -c 1 -i 24 -a 1 -x {5.0 0.0 8 ------- null}
+ -t 0.57872 -s 0 -d 2 -p tcp -e 1040 -c 1 -i 25 -a 1 -x {0.0 5.0 9 ------- null}
- -t 0.57872 -s 0 -d 2 -p tcp -e 1040 -c 1 -i 25 -a 1 -x {0.0 5.0 9 ------- null}
h -t 0.57872 -s 0 -d 2 -p tcp -e 1040 -c 1 -i 25 -a 1 -x {0.0 5.0 -1 ------- null}
+ -t 0.57872 -s 0 -d 2 -p tcp -e 1040 -c 1 -i 26 -a 1 -x {0.0 5.0 10 ------- null}
- -t 0.58288 -s 0 -d 2 -p tcp -e 1040 -c 1 -i 26 -a 1 -x {0.0 5.0 10 ------- null}
h -t 0.58288 -s 0 -d 2 -p tcp -e 1040 -c 1 -i 26 -a 1 -x {0.0 5.0 -1 ------- null}
r -t 0.59288 -s 0 -d 2 -p tcp -e 1040 -c 1 -i 25 -a 1 -x {0.0 5.0 9 ------- null}
+ -t 0.59288 -s 2 -d 3 -p tcp -e 1040 -c 1 -i 25 -a 1 -x {0.0 5.0 9 ------- null}
- -t 0.59288 -s 2 -d 3 -p tcp -e 1040 -c 1 -i 25 -a 1 -x {0.0 5.0 9 ------- null}
h -t 0.59288 -s 2 -d 3 -p tcp -e 1040 -c 1 -i 25 -a 1 -x {0.0 5.0 -1 ------- null}
r -t 0.59704 -s 0 -d 2 -p tcp -e 1040 -c 1 -i 26 -a 1 -x {0.0 5.0 10 ------- null}
+ -t 0.59704 -s 2 -d 3 -p tcp -e 1040 -c 1 -i 26 -a 1 -x {0.0 5.0 10 ------- null}
- -t 0.6012 -s 2 -d 3 -p tcp -e 1040 -c 1 -i 26 -a 1 -x {0.0 5.0 10 ------- null}
h -t 0.6012 -s 2 -d 3 -p tcp -e 1040 -c 1 -i 26 -a 1 -x {0.0 5.0 -1 ------- null}
r -t 0.6212 -s 2 -d 3 -p tcp -e 1040 -c 1 -i 25 -a 1 -x {0.0 5.0 9 ------- null}
+ -t 0.6212 -s 3 -d 5 -p tcp -e 1040 -c 1 -i 25 -a 1 -x {0.0 5.0 9 ------- null}
- -t 0.6212 -s 3 -d 5 -p tcp -e 1040 -c 1 -i 25 -a 1 -x {0.0 5.0 9 ------- null}
h -t 0.6212 -s 3 -d 5 -p tcp -e 1040 -c 1 -i 25 -a 1 -x {0.0 5.0 -1 ------- null}
r -t 0.62952 -s 2 -d 3 -p tcp -e 1040 -c 1 -i 26 -a 1 -x {0.0 5.0 10 ------- null}
+ -t 0.62952 -s 3 -d 5 -p tcp -e 1040 -c 1 -i 26 -a 1 -x {0.0 5.0 10 ------- null}
- -t 0.62952 -s 3 -d 5 -p tcp -e 1040 -c 1 -i 26 -a 1 -x {0.0 5.0 10 ------- null}
h -t 0.62952 -s 3 -d 5 -p tcp -e 1040 -c 1 -i 26 -a 1 -x {0.0 5.0 -1 ------- null}
r -t 0.63536 -s 3 -d 5 -p tcp -e 1040 -c 1 -i 25 -a 1 -x {0.0 5.0 9 ------- null}
+ -t 0.63536 -s 5 -d 3 -p ack -e 40 -c 1 -i 27 -a 1 -x {5.0 0.0 10 ------- null}
- -t 0.63536 -s 5 -d 3 -p ack -e 40 -c 1 -i 27 -a 1 -x {5.0 0.0 10 ------- null}
h -t 0.63536 -s 5 -d 3 -p ack -e 40 -c 1 -i 27 -a 1 -x {5.0 0.0 -1 ------- null}
r -t 0.64368 -s 3 -d 5 -p tcp -e 1040 -c 1 -i 26 -a 1 -x {0.0 5.0 10 ------- null}
+ -t 0.64368 -s 5 -d 3 -p ack -e 40 -c 1 -i 28 -a 1 -x {5.0 0.0 10 ------- null}
- -t 0.64368 -s 5 -d 3 -p ack -e 40 -c 1 -i 28 -a 1 -x {5.0 0.0 10 ------- null}
h -t 0.64368 -s 5 -d 3 -p ack -e 40 -c 1 -i 28 -a 1 -x {5.0 0.0 -1 ------- null}
r -t 0.64552 -s 5 -d 3 -p ack -e 40 -c 1 -i 27 -a 1 -x {5.0 0.0 10 ------- null}
+ -t 0.64552 -s 3 -d 2 -p ack -e 40 -c 1 -i 27 -a 1 -x {5.0 0.0 10 ------- null}
- -t 0.64552 -s 3 -d 2 -p ack -e 40 -c 1 -i 27 -a 1 -x {5.0 0.0 10 ------- null}
h -t 0.64552 -s 3 -d 2 -p ack -e 40 -c 1 -i 27 -a 1 -x {5.0 0.0 -1 ------- null}
r -t 0.65384 -s 5 -d 3 -p ack -e 40 -c 1 -i 28 -a 1 -x {5.0 0.0 10 ------- null}
+ -t 0.65384 -s 3 -d 2 -p ack -e 40 -c 1 -i 28 -a 1 -x {5.0 0.0 10 ------- null}
- -t 0.65384 -s 3 -d 2 -p ack -e 40 -c 1 -i 28 -a 1 -x {5.0 0.0 10 ------- null}
h -t 0.65384 -s 3 -d 2 -p ack -e 40 -c 1 -i 28 -a 1 -x {5.0 0.0 -1 ------- null}
r -t 0.66584 -s 3 -d 2 -p ack -e 40 -c 1 -i 27 -a 1 -x {5.0 0.0 10 ------- null}
+ -t 0.66584 -s 2 -d 0 -p ack -e 40 -c 1 -i 27 -a 1 -x {5.0 0.0 10 ------- null}
- -t 0.66584 -s 2 -d 0 -p ack -e 40 -c 1 -i 27 -a 1 -x {5.0 0.0 10 ------- null}
h -t 0.66584 -s 2 -d 0 -p ack -e 40 -c 1 -i 27 -a 1 -x {5.0 0.0 -1 ------- null}
r -t 0.67416 -s 3 -d 2 -p ack -e 40 -c 1 -i 28 -a 1 -x {5.0 0.0 10 ------- null}
+ -t 0.67416 -s 2 -d 0 -p ack -e 40 -c 1 -i 28 -a 1 -x {5.0 0.0 10 ------- null}
- -t 0.67416 -s 2 -d 0 -p ack -e 40 -c 1 -i 28 -a 1 -x {5.0 0.0 10 ------- null}
h -t 0.67416 -s 2 -d 0 -p ack -e 40 -c 1 -i 28 -a 1 -x {5.0 0.0 -1 ------- null}
r -t 0.676 -s 2 -d 0 -p ack -e 40 -c 1 -i 27 -a 1 -x {5.0 0.0 10 ------- null}
+ -t 0.676 -s 0 -d 2 -p tcp -e 1040 -c 1 -i 29 -a 1 -x {0.0 5.0 11 ------- null}
- -t 0.676 -s 0 -d 2 -p tcp -e 1040 -c 1 -i 29 -a 1 -x {0.0 5.0 11 ------- null}
h -t 0.676 -s 0 -d 2 -p tcp -e 1040 -c 1 -i 29 -a 1 -x {0.0 5.0 -1 ------- null}
+ -t 0.676 -s 0 -d 2 -p tcp -e 1040 -c 1 -i 30 -a 1 -x {0.0 5.0 12 ------- null}
+ -t 0.676 -s 0 -d 2 -p tcp -e 1040 -c 1 -i 31 -a 1 -x {0.0 5.0 13 ------- null}
- -t 0.68016 -s 0 -d 2 -p tcp -e 1040 -c 1 -i 30 -a 1 -x {0.0 5.0 12 ------- null}
h -t 0.68016 -s 0 -d 2 -p tcp -e 1040 -c 1 -i 30 -a 1 -x {0.0 5.0 -1 ------- null}
r -t 0.68432 -s 2 -d 0 -p ack -e 40 -c 1 -i 28 -a 1 -x {5.0 0.0 10 ------- null}
+ -t 0.68432 -s 0 -d 2 -p tcp -e 1040 -c 1 -i 32 -a 1 -x {0.0 5.0 14 ------- null}
- -t 0.68432 -s 0 -d 2 -p tcp -e 1040 -c 1 -i 31 -a 1 -x {0.0 5.0 13 ------- null}
h -t 0.68432 -s 0 -d 2 -p tcp -e 1040 -c 1 -i 31 -a 1 -x {0.0 5.0 -1 ------- null}
- -t 0.68848 -s 0 -d 2 -p tcp -e 1040 -c 1 -i 32 -a 1 -x {0.0 5.0 14 ------- null}
h -t 0.68848 -s 0 -d 2 -p tcp -e 1040 -c 1 -i 32 -a 1 -x {0.0 5.0 -1 ------- null}
r -t 0.69016 -s 0 -d 2 -p tcp -e 1040 -c 1 -i 29 -a 1 -x {0.0 5.0 11 ------- null}
+ -t 0.69016 -s 2 -d 3 -p tcp -e 1040 -c 1 -i 29 -a 1 -x {0.0 5.0 11 ------- null}
- -t 0.69016 -s 2 -d 3 -p tcp -e 1040 -c 1 -i 29 -a 1 -x {0.0 5.0 11 ------- null}
h -t 0.69016 -s 2 -d 3 -p tcp -e 1040 -c 1 -i 29 -a 1 -x {0.0 5.0 -1 ------- null}
r -t 0.69432 -s 0 -d 2 -p tcp -e 1040 -c 1 -i 30 -a 1 -x {0.0 5.0 12 ------- null}
+ -t 0.69432 -s 2 -d 3 -p tcp -e 1040 -c 1 -i 30 -a 1 -x {0.0 5.0 12 ------- null}
- -t 0.69848 -s 2 -d 3 -p tcp -e 1040 -c 1 -i 30 -a 1 -x {0.0 5.0 12 ------- null}
h -t 0.69848 -s 2 -d 3 -p tcp -e 1040 -c 1 -i 30 -a 1 -x {0.0 5.0 -1 ------- null}
r -t 0.69848 -s 0 -d 2 -p tcp -e 1040 -c 1 -i 31 -a 1 -x {0.0 5.0 13 ------- null}
+ -t 0.69848 -s 2 -d 3 -p tcp -e 1040 -c 1 -i 31 -a 1 -x {0.0 5.0 13 ------- null}
r -t 0.70264 -s 0 -d 2 -p tcp -e 1040 -c 1 -i 32 -a 1 -x {0.0 5.0 14 ------- null}
+ -t 0.70264 -s 2 -d 3 -p tcp -e 1040 -c 1 -i 32 -a 1 -x {0.0 5.0 14 ------- null}
d -t 0.70264 -s 2 -d 3 -p tcp -e 1040 -c 1 -i 32 -a 1 -x {0.0 5.0 14 ------- null}
- -t 0.7068 -s 2 -d 3 -p tcp -e 1040 -c 1 -i 31 -a 1 -x {0.0 5.0 13 ------- null}
h -t 0.7068 -s 2 -d 3 -p tcp -e 1040 -c 1 -i 31 -a 1 -x {0.0 5.0 -1 ------- null}
r -t 0.71848 -s 2 -d 3 -p tcp -e 1040 -c 1 -i 29 -a 1 -x {0.0 5.0 11 ------- null}
+ -t 0.71848 -s 3 -d 5 -p tcp -e 1040 -c 1 -i 29 -a 1 -x {0.0 5.0 11 ------- null}
- -t 0.71848 -s 3 -d 5 -p tcp -e 1040 -c 1 -i 29 -a 1 -x {0.0 5.0 11 ------- null}
h -t 0.71848 -s 3 -d 5 -p tcp -e 1040 -c 1 -i 29 -a 1 -x {0.0 5.0 -1 ------- null}